--------------------------------------------------------------------------
Initialization of PSM library failed.

  Error: PSM is in the finalized state
--------------------------------------------------------------------------
--------------------------------------------------------------------------
The OpenFabrics (openib) BTL failed to initialize while trying to
allocate some locked memory.  This typically can indicate that the
memlock limits are set too low.  For most HPC installations, the
memlock limits should be set to "unlimited".  The failure occured
here:

  Local host:    node2003
  OMPI source:   btl_openib.c:753
  Function:      ompi_free_list_init_ex_new()
  Device:        qib0
  Memlock limit: 65536

You may need to consult with your system administrator to get this
problem fixed.  This FAQ entry on the Open MPI web site may also be
helpful:

    http://www.open-mpi.org/faq/?category=openfabrics#ib-locked-pages
--------------------------------------------------------------------------

*************** JDFTx 1.4.2 (git hash 74b6e54) ***************

Start date and time: Mon Mar 11 14:06:53 2019
Executable jdftx with command-line: -i Vacuum.in
Running on hosts (process indices):  node2003.physics.cornell.edu (0)
Divided in process groups (process indices):  0 (0)
Resource initialization completed at t[s]:      0.00
Run totals: 1 processes, 12 threads, 0 GPUs


Input parsed successfully to the following command list (including defaults):

basis kpoint-dependent
coords-type Lattice
core-overlap-check vector
coulomb-interaction Slab 001
coulomb-truncation-embed 0 0 0
davidson-band-ratio 1.1
dump End State IonicPositions
dump-name 110-Vacuum.$VAR
elec-cutoff 20 100
elec-eigen-algo Davidson
elec-ex-corr gga-PBEsol
elec-smearing Fermi 0.01
electronic-minimize  \
	dirUpdateScheme      FletcherReeves \
	linminMethod         DirUpdateRecommended \
	nIterations          100 \
	history              15 \
	knormThreshold       0 \
	energyDiffThreshold  1e-08 \
	nEnergyDiff          2 \
	alphaTstart          1 \
	alphaTmin            1e-10 \
	updateTestStepSize   yes \
	alphaTreduceFactor   0.1 \
	alphaTincreaseFactor 3 \
	nAlphaAdjustMax      3 \
	wolfeEnergy          0.0001 \
	wolfeGradient        0.9 \
	fdTest               no
electronic-scf  \
	nIterations	50 \
	energyDiffThreshold	1e-08 \
	residualThreshold	1e-07 \
	mixFraction	0.5 \
	qMetric	0.8 \
	history	10 \
	nEigSteps	2 \
	eigDiffThreshold	1e-08 \
	mixedVariable	Density \
	qKerker	0.8 \
	qKappa	-1 \
	verbose	no \
	mixFractionMag	1.5
exchange-regularization WignerSeitzTruncated
fluid None
fluid-ex-corr lda-TF lda-PZ
fluid-gummel-loop 10 1.000000e-05
fluid-minimize  \
	dirUpdateScheme      PolakRibiere \
	linminMethod         DirUpdateRecommended \
	nIterations          100 \
	history              15 \
	knormThreshold       0 \
	energyDiffThreshold  0 \
	nEnergyDiff          2 \
	alphaTstart          1 \
	alphaTmin            1e-10 \
	updateTestStepSize   yes \
	alphaTreduceFactor   0.1 \
	alphaTincreaseFactor 3 \
	nAlphaAdjustMax      3 \
	wolfeEnergy          0.0001 \
	wolfeGradient        0.9 \
	fdTest               no
fluid-solvent H2O 55.338 ScalarEOS \
	epsBulk 78.4 \
	pMol 0.92466 \
	epsInf 1.77 \
	Pvap 1.06736e-10 \
	sigmaBulk 4.62e-05 \
	Rvdw 2.61727 \
	Res 1.42 \
	tauNuc 343133 \
	omegaEl 0.55124 \
	gammaEl 0.257245
forces-output-coords Positions
ion Pt   0.000000000000000   0.000000000000000  -0.187130000000000 1
ion Pt   0.500000000000000   0.500000000000000  -0.093565000000000 1
ion Pt   0.000000000000000   0.000000000000000   0.000000000000000 1
ion Pt   0.500000000000000   0.500000000000000   0.093565000000000 1
ion Pt   0.000000000000000   0.000000000000000   0.187130000000000 1
ion-species GBRV/$ID_pbesol.uspp
ion-width 0
ionic-minimize  \
	dirUpdateScheme      L-BFGS \
	linminMethod         DirUpdateRecommended \
	nIterations          10 \
	history              15 \
	knormThreshold       0.0001 \
	energyDiffThreshold  1e-06 \
	nEnergyDiff          2 \
	alphaTstart          1 \
	alphaTmin            1e-10 \
	updateTestStepSize   yes \
	alphaTreduceFactor   0.1 \
	alphaTincreaseFactor 3 \
	nAlphaAdjustMax      3 \
	wolfeEnergy          0.0001 \
	wolfeGradient        0.9 \
	fdTest               no
kpoint   0.000000000000   0.000000000000   0.000000000000  1.00000000000000
kpoint-folding 12 12 1 
latt-move-scale 1 1 1
latt-scale 1 1 1 
lattice Orthorhombic 5.23966 7.41 28
lattice-minimize  \
	dirUpdateScheme      L-BFGS \
	linminMethod         DirUpdateRecommended \
	nIterations          0 \
	history              15 \
	knormThreshold       0 \
	energyDiffThreshold  1e-06 \
	nEnergyDiff          2 \
	alphaTstart          1 \
	alphaTmin            1e-10 \
	updateTestStepSize   yes \
	alphaTreduceFactor   0.1 \
	alphaTincreaseFactor 3 \
	nAlphaAdjustMax      3 \
	wolfeEnergy          0.0001 \
	wolfeGradient        0.9 \
	fdTest               no
lcao-params -1 1e-06 0.01
pcm-variant GLSSA13
spintype no-spin
subspace-rotation-factor 1 yes
symmetries automatic
symmetry-threshold 0.0001



---------- Setting up symmetries ----------

Found 8 point-group symmetries of the bravais lattice
Found 8 space-group symmetries with basis
Applied RMS atom displacement 0 bohrs to make symmetries exact.

---------- Initializing the Grid ----------
R = 
[    5.23966          0          0  ]
[          0       7.41          0  ]
[          0          0         28  ]
unit cell volume = 1087.12
G =
[    1.19916          0          0  ]
[          0   0.847933          0  ]
[          0          0   0.224399  ]
Minimum fftbox size, Smin = [  24  36  128  ]
Chosen fftbox size, S = [  24  36  128  ]

---------- Initializing tighter grid for wavefunction operations ----------
R = 
[    5.23966          0          0  ]
[          0       7.41          0  ]
[          0          0         28  ]
unit cell volume = 1087.12
G =
[    1.19916          0          0  ]
[          0   0.847933          0  ]
[          0          0   0.224399  ]
Minimum fftbox size, Smin = [  24  32  116  ]
Chosen fftbox size, S = [  24  32  120  ]

---------- Exchange Correlation functional ----------
Initalized PBEsol GGA exchange.
Initalized PBEsol GGA correlation.

---------- Setting up pseudopotentials ----------
Width of ionic core gaussian charges (only for fluid interactions / plotting) set to 0

Reading pseudopotential file '/home/jfm343/JDFTXDIR/build/pseudopotentials/GBRV/pt_pbesol.uspp':
  Title: Pt.  Created by USPP 7.3.6 on 22-9-15
  Reference state energy: -104.899005.  16 valence electrons in orbitals:
    |510>  occupation: 6  eigenvalue: -2.158847
    |520>  occupation: 9.5  eigenvalue: -0.336311
    |600>  occupation: 0  eigenvalue: -0.320324
    |610>  occupation: 0  eigenvalue: -0.119800
  lMax: 2  lLocal: 3  QijEcut: 5.5
  6 projectors sampled on a log grid with 745 points:
    l: 0  eig: -0.320324  rCut: 2.45
    l: 0  eig: 1.500000  rCut: 2.45
    l: 1  eig: -2.158847  rCut: 1.6
    l: 1  eig: -0.119800  rCut: 1.6
    l: 2  eig: -0.500000  rCut: 1.6
    l: 2  eig: -0.336311  rCut: 1.6
  Partial core density with radius 1.1
  Transforming core density to a uniform radial grid of dG=0.02 with 1277 points.
  Transforming local potential to a uniform radial grid of dG=0.02 with 1277 points.
  Transforming nonlocal projectors to a uniform radial grid of dG=0.02 with 432 points.
  Transforming density augmentations to a uniform radial grid of dG=0.02 with 1277 points.
  Transforming atomic orbitals to a uniform radial grid of dG=0.02 with 432 points.
  Core radius for overlap checks: 2.45 bohrs.

Initialized 1 species with 5 total atoms.

Folded 1 k-points by 12x12x1 to 144 k-points.

---------- Setting up k-points, bands, fillings ----------
Reduced to 49 k-points under symmetry. 
Computing the number of bands and number of electrons
Calculating initial fillings.
nElectrons:  80.000000   nBands: 60   nStates: 49

----- Setting up reduced wavefunction bases (one per k-point) -----
average nbasis = 4644.368 , ideal nbasis = 4644.279

---------- Setting up coulomb interaction ----------
Setting up double-sized grid for truncated Coulomb potentials:
R = 
[    5.23966          0          0  ]
[          0       7.41          0  ]
[          0          0         56  ]
unit cell volume = 2174.25
G =
[    1.19916          0          0  ]
[          0   0.847933          0  ]
[          0          0     0.1122  ]
Chosen fftbox size, S = [  24  36  256  ]
Integer grid location selected as the embedding center:
   Grid: [  0  0  0  ]
   Lattice: [  0  0  0  ]
   Cartesian: [  0  0  0  ]
Constructing Wigner-Seitz cell: 6 faces (6 quadrilaterals, 0 hexagons)
Range-separation parameter for embedded mesh potentials due to point charges: 0.590044 bohrs.
Initialized slab truncation along lattice direction 001

---------- Setting up 2D ewald sum ----------
Optimum gaussian width for ewald sums = 3.717177 bohr.
Real space sums over 221 unit cells with max indices [  8  6  0  ]
Reciprocal space sums over 99 terms with max indices [  4  5  0  ]

---------- Allocating electronic variables ----------
Initializing wave functions:  linear combination of atomic orbitals
Pt pseudo-atom occupations:   s ( 0 )  p ( 6 0 )  d ( 10 )
	FillingsUpdate:  mu: -1.221852400  nElectrons: 80.000000
LCAOMinimize: Iter:   0  F: -443.0428821887519462  |grad|_K:  1.672e-02  alpha:  1.000e+00
LCAOMinimize: 	Step increased F by 5.155802e+00, reducing alpha to 2.296396e-02.
	FillingsUpdate:  mu: -0.971582945  nElectrons: 80.000000
LCAOMinimize: Iter:   1  F: -444.0217531794172601  |grad|_K:  1.053e-02  alpha:  2.296e-02  linmin: -3.724e-01  cgtest:  9.457e-01  t[s]:     36.54
LCAOMinimize: Encountered beta<0, resetting CG.
	FillingsUpdate:  mu: -0.368044448  nElectrons: 80.000000
LCAOMinimize: Iter:   2  F: -444.6264820866302898  |grad|_K:  4.417e-03  alpha:  6.330e-02  linmin:  7.041e-02  cgtest: -1.578e-01  t[s]:     48.12
	FillingsUpdate:  mu: -0.192316326  nElectrons: 80.000000
LCAOMinimize: Iter:   3  F: -444.9408123805055197  |grad|_K:  1.492e-03  alpha:  1.798e-01  linmin: -1.551e-01  cgtest:  6.775e-01  t[s]:     59.03
LCAOMinimize: Encountered beta<0, resetting CG.
	FillingsUpdate:  mu: -0.277096151  nElectrons: 80.000000
LCAOMinimize: Iter:   4  F: -444.9683637188153966  |grad|_K:  1.400e-03  alpha:  1.359e-01  linmin: -6.229e-05  cgtest: -1.725e-02  t[s]:     69.91
	FillingsUpdate:  mu: -0.211137748  nElectrons: 80.000000
LCAOMinimize: Iter:   5  F: -444.9978617438604829  |grad|_K:  8.984e-04  alpha:  1.635e-01  linmin: -1.212e-02  cgtest:  1.329e-01  t[s]:     80.75
	FillingsUpdate:  mu: -0.192692143  nElectrons: 80.000000
LCAOMinimize: Iter:   6  F: -445.0123371147066109  |grad|_K:  2.553e-04  alpha:  1.902e-01  linmin: -9.952e-03  cgtest: -9.456e-02  t[s]:     91.57
	FillingsUpdate:  mu: -0.208672791  nElectrons: 80.000000
LCAOMinimize: Iter:   7  F: -445.0128097943174907  |grad|_K:  1.412e-04  alpha:  7.796e-02  linmin: -1.082e-03  cgtest:  2.560e-03  t[s]:    102.53
	FillingsUpdate:  mu: -0.215287284  nElectrons: 80.000000
LCAOMinimize: Iter:   8  F: -445.0131670494815239  |grad|_K:  5.878e-05  alpha:  1.963e-01  linmin:  6.917e-04  cgtest:  5.396e-02  t[s]:    113.44
	FillingsUpdate:  mu: -0.213270415  nElectrons: 80.000000
LCAOMinimize: Iter:   9  F: -445.0132065903747502  |grad|_K:  4.115e-05  alpha:  1.257e-01  linmin: -7.792e-06  cgtest:  4.781e-03  t[s]:    124.38
	FillingsUpdate:  mu: -0.215216417  nElectrons: 80.000000
LCAOMinimize: Iter:  10  F: -445.0132205422479501  |grad|_K:  1.236e-05  alpha:  9.029e-02  linmin:  2.484e-04  cgtest: -6.473e-03  t[s]:    135.79
LCAOMinimize: 	Predicted alpha/alphaT>3.000000, increasing alphaT to 2.708804e-01.
	FillingsUpdate:  mu: -0.215782161  nElectrons: 80.000000
LCAOMinimize: Iter:  11  F: -445.0132253362835968  |grad|_K:  1.175e-05  alpha:  3.445e-01  linmin:  1.266e-04  cgtest: -3.044e-04  t[s]:    149.91
	FillingsUpdate:  mu: -0.215120664  nElectrons: 80.000000
LCAOMinimize: Iter:  12  F: -445.0132264308319918  |grad|_K:  6.157e-06  alpha:  8.690e-02  linmin: -9.130e-05  cgtest:  1.019e-03  t[s]:    160.54
	FillingsUpdate:  mu: -0.215093540  nElectrons: 80.000000
LCAOMinimize: Iter:  13  F: -445.0132269545092640  |grad|_K:  1.843e-06  alpha:  1.514e-01  linmin: -1.062e-03  cgtest:  1.847e-03  t[s]:    171.28
	FillingsUpdate:  mu: -0.215229075  nElectrons: 80.000000
LCAOMinimize: Iter:  14  F: -445.0132270211208834  |grad|_K:  2.410e-06  alpha:  2.147e-01  linmin:  4.468e-04  cgtest: -3.576e-03  t[s]:    182.14
LCAOMinimize: Converged (|Delta F|<1.000000e-06 for 2 iters).


---- Citations for features of the code used in this run ----

   Software package:
      R. Sundararaman, K. Letchworth-Weaver, K.A. Schwarz, D. Gunceler, Y. Ozhabes and T.A. Arias, 'JDFTx: software for joint density-functional theory', SoftwareX 6, 278 (2017)

   gga-PBEsol exchange-correlation functional:
      J.P. Perdew et al., Phys. Rev. Lett. 100, 136406 (2008)

   Pseudopotentials:
      KF Garrity, JW Bennett, KM Rabe and D Vanderbilt, Comput. Mater. Sci. 81, 446 (2014)

   Truncated Coulomb potentials:
      R. Sundararaman and T.A. Arias, Phys. Rev. B 87, 165122 (2013)

This list may not be complete. Please suggest additional citations or
report any other bugs at https://github.com/shankar1729/jdftx/issues

Initialization completed successfully at t[s]:    185.29

	FillingsUpdate:  mu: -0.215229075  nElectrons: 80.000000

-------- Electronic minimization -----------
Will mix electronic density at each iteration.
	FillingsUpdate:  mu: -0.215229075  nElectrons: 80.000000
	FillingsUpdate:  mu: -0.216685436  nElectrons: 80.000000
SCF: Cycle:  0   F: -445.078519100704852   dF: -6.529e-02   |Residual|: 6.549e-02   |deigs|: 6.155e-02  t[s]:    230.13
	FillingsUpdate:  mu: -0.211255003  nElectrons: 80.000000
SCF: Cycle:  1   F: -445.084136636074106   dF: -5.618e-03   |Residual|: 2.626e-02   |deigs|: 1.143e-02  t[s]:    264.80
	FillingsUpdate:  mu: -0.210227745  nElectrons: 80.000000
SCF: Cycle:  2   F: -445.083764805768226   dF: +3.718e-04   |Residual|: 2.307e-02   |deigs|: 2.588e-03  t[s]:    299.61
	FillingsUpdate:  mu: -0.209931692  nElectrons: 80.000000
SCF: Cycle:  3   F: -445.084848068276301   dF: -1.083e-03   |Residual|: 1.266e-02   |deigs|: 1.635e-03  t[s]:    334.51
	FillingsUpdate:  mu: -0.208955357  nElectrons: 80.000000
SCF: Cycle:  4   F: -445.085990469843296   dF: -1.142e-03   |Residual|: 2.873e-03   |deigs|: 1.203e-03  t[s]:    369.35
	FillingsUpdate:  mu: -0.208250603  nElectrons: 80.000000
SCF: Cycle:  5   F: -445.085979223643960   dF: +1.125e-05   |Residual|: 2.745e-03   |deigs|: 8.546e-04  t[s]:    404.17
	FillingsUpdate:  mu: -0.207234342  nElectrons: 80.000000
SCF: Cycle:  6   F: -445.086039030527843   dF: -5.981e-05   |Residual|: 1.694e-03   |deigs|: 9.749e-04  t[s]:    437.43
	FillingsUpdate:  mu: -0.204167216  nElectrons: 80.000000
SCF: Cycle:  7   F: -445.086094398545185   dF: -5.537e-05   |Residual|: 1.185e-03   |deigs|: 2.956e-03  t[s]:    472.59
	FillingsUpdate:  mu: -0.201699212  nElectrons: 80.000000
SCF: Cycle:  8   F: -445.086112001229651   dF: -1.760e-05   |Residual|: 8.004e-04   |deigs|: 2.422e-03  t[s]:    501.29
	FillingsUpdate:  mu: -0.199569240  nElectrons: 80.000000
SCF: Cycle:  9   F: -445.086113198473697   dF: -1.197e-06   |Residual|: 4.590e-04   |deigs|: 2.193e-03  t[s]:    533.48
	FillingsUpdate:  mu: -0.198105060  nElectrons: 80.000000
SCF: Cycle: 10   F: -445.086113848975799   dF: -6.505e-07   |Residual|: 2.166e-04   |deigs|: 1.628e-03  t[s]:    566.57
	FillingsUpdate:  mu: -0.198002717  nElectrons: 80.000000
SCF: Cycle: 11   F: -445.086113953935921   dF: -1.050e-07   |Residual|: 7.999e-05   |deigs|: 2.499e-04  t[s]:    599.27
	FillingsUpdate:  mu: -0.197889222  nElectrons: 80.000000
SCF: Cycle: 12   F: -445.086113972869782   dF: -1.893e-08   |Residual|: 3.040e-05   |deigs|: 2.089e-04  t[s]:    632.01
	FillingsUpdate:  mu: -0.197862229  nElectrons: 80.000000
SCF: Cycle: 13   F: -445.086113975476280   dF: -2.606e-09   |Residual|: 1.123e-05   |deigs|: 7.157e-05  t[s]:    663.39
	FillingsUpdate:  mu: -0.197859756  nElectrons: 80.000000
SCF: Cycle: 14   F: -445.086113975811998   dF: -3.357e-10   |Residual|: 5.739e-06   |deigs|: 4.006e-05  t[s]:    695.57
SCF: Converged (|Delta E|<1.000000e-08 for 2 iters).


# Ionic positions in lattice coordinates:
ion Pt   0.000000000000000   0.000000000000000  -0.187130000000000 1
ion Pt   0.500000000000000   0.500000000000000  -0.093565000000000 1
ion Pt   0.000000000000000   0.000000000000000   0.000000000000000 1
ion Pt   0.500000000000000   0.500000000000000   0.093565000000000 1
ion Pt   0.000000000000000   0.000000000000000   0.187130000000000 1


# Forces in Lattice coordinates:
force Pt   0.000000000000000   0.000000000000000   0.535556103769941 1
force Pt   0.000000000000000   0.000000000000000  -0.579933996217517 1
force Pt   0.000000000000000   0.000000000000000   0.000000000000000 1
force Pt   0.000000000000000   0.000000000000000   0.579933996217062 1
force Pt   0.000000000000000   0.000000000000000  -0.535556103769941 1

# Energy components:
   Eewald =    -2603.3058727314746648
       EH =    -2226.8853766505194471
     Eloc =     4308.2810531636123415
      Enl =       -5.2864092194177603
      Exc =     -141.4452213555292985
 Exc_core =       81.2082843751937133
       KE =      142.4107355562836403
-------------------------------------
     Etot =     -445.0228068618520183
       TS =        0.0633071139599981
-------------------------------------
        F =     -445.0861139758119975

IonicMinimize: Iter:   0  F: -445.086113975811998  |grad|_K:  1.029e-02  t[s]:    698.05

#--- Lowdin population analysis ---
# oxidation-state Pt +0.073 -0.049 +0.008 -0.049 +0.073

	FillingsUpdate:  mu: -0.197859756  nElectrons: 80.000000

-------- Electronic minimization -----------
Will mix electronic density at each iteration.
	FillingsUpdate:  mu: -0.197859756  nElectrons: 80.000000
	FillingsUpdate:  mu: -0.226512054  nElectrons: 80.000000
SCF: Cycle:  0   F: -444.956612083552955   dF: +6.894e-02   |Residual|: 1.923e-01   |deigs|: 1.341e-03  t[s]:    747.83
	FillingsUpdate:  mu: -0.222526442  nElectrons: 80.000000
SCF: Cycle:  1   F: -444.992919131962708   dF: -3.631e-02   |Residual|: 1.378e-01   |deigs|: 9.832e-03  t[s]:    782.79
	FillingsUpdate:  mu: -0.221677145  nElectrons: 80.000000
SCF: Cycle:  2   F: -445.033490352514889   dF: -4.057e-02   |Residual|: 9.679e-02   |deigs|: 9.240e-03  t[s]:    817.62
	FillingsUpdate:  mu: -0.220679420  nElectrons: 80.000000
SCF: Cycle:  3   F: -445.079701964901403   dF: -4.621e-02   |Residual|: 2.803e-02   |deigs|: 5.109e-03  t[s]:    852.48
	FillingsUpdate:  mu: -0.220129221  nElectrons: 80.000000
SCF: Cycle:  4   F: -445.086712118515095   dF: -7.010e-03   |Residual|: 9.398e-03   |deigs|: 1.614e-03  t[s]:    886.79
	FillingsUpdate:  mu: -0.218253993  nElectrons: 80.000000
SCF: Cycle:  5   F: -445.087142924353600   dF: -4.308e-04   |Residual|: 4.977e-03   |deigs|: 1.785e-03  t[s]:    921.69
	FillingsUpdate:  mu: -0.214570576  nElectrons: 80.000000
SCF: Cycle:  6   F: -445.087341185002799   dF: -1.983e-04   |Residual|: 4.247e-03   |deigs|: 3.505e-03  t[s]:    956.48
	FillingsUpdate:  mu: -0.209026515  nElectrons: 80.000000
SCF: Cycle:  7   F: -445.087580264257952   dF: -2.391e-04   |Residual|: 1.858e-03   |deigs|: 5.359e-03  t[s]:    991.50
	FillingsUpdate:  mu: -0.204906200  nElectrons: 80.000000
SCF: Cycle:  8   F: -445.087588891175585   dF: -8.627e-06   |Residual|: 1.734e-03   |deigs|: 4.058e-03  t[s]:   1020.31
	FillingsUpdate:  mu: -0.201348153  nElectrons: 80.000000
SCF: Cycle:  9   F: -445.087607205032668   dF: -1.831e-05   |Residual|: 8.427e-04   |deigs|: 3.654e-03  t[s]:   1054.66
	FillingsUpdate:  mu: -0.198388856  nElectrons: 80.000000
SCF: Cycle: 10   F: -445.087609504360046   dF: -2.299e-06   |Residual|: 3.764e-04   |deigs|: 3.167e-03  t[s]:   1087.83
	FillingsUpdate:  mu: -0.197719239  nElectrons: 80.000000
SCF: Cycle: 11   F: -445.087609741003178   dF: -2.366e-07   |Residual|: 1.480e-04   |deigs|: 8.788e-04  t[s]:   1121.01
	FillingsUpdate:  mu: -0.197603498  nElectrons: 80.000000
SCF: Cycle: 12   F: -445.087609795908008   dF: -5.490e-08   |Residual|: 5.709e-05   |deigs|: 2.833e-04  t[s]:   1153.91
	FillingsUpdate:  mu: -0.197559381  nElectrons: 80.000000
SCF: Cycle: 13   F: -445.087609806345426   dF: -1.044e-08   |Residual|: 1.947e-05   |deigs|: 1.010e-04  t[s]:   1187.39
	FillingsUpdate:  mu: -0.197542875  nElectrons: 80.000000
SCF: Cycle: 14   F: -445.087609807103149   dF: -7.577e-10   |Residual|: 5.997e-06   |deigs|: 3.701e-05  t[s]:   1219.45
	FillingsUpdate:  mu: -0.197541278  nElectrons: 80.000000
SCF: Cycle: 15   F: -445.087609807051365   dF: +5.178e-11   |Residual|: 4.088e-06   |deigs|: 1.470e-05  t[s]:   1250.18
	FillingsUpdate:  mu: -0.197538583  nElectrons: 80.000000
SCF: Cycle: 16   F: -445.087609807149533   dF: -9.817e-11   |Residual|: 1.843e-06   |deigs|: 1.612e-05  t[s]:   1278.39
	FillingsUpdate:  mu: -0.197538756  nElectrons: 80.000000
SCF: Cycle: 17   F: -445.087609807221497   dF: -7.196e-11   |Residual|: 6.456e-07   |deigs|: 9.901e-06  t[s]:   1304.87
SCF: Converged (|Delta E|<1.000000e-08 for 2 iters).


# Ionic positions in lattice coordinates:
ion Pt   0.000000000000000   0.000000000000000  -0.186446892724783 1
ion Pt   0.500000000000000   0.500000000000000  -0.094304711729869 1
ion Pt   0.000000000000000   0.000000000000000   0.000000000000000 1
ion Pt   0.500000000000000   0.500000000000000   0.094304711729869 1
ion Pt   0.000000000000000   0.000000000000000   0.186446892724783 1


# Forces in Lattice coordinates:
force Pt  -0.000000000000000   0.000000000000000   0.489385931886046 1
force Pt  -0.000000000000000   0.000000000000000  -0.496054236548212 1
force Pt   0.000000000000000   0.000000000000000   0.000000000000000 1
force Pt  -0.000000000000000   0.000000000000000   0.496054236548212 1
force Pt  -0.000000000000000   0.000000000000000  -0.489385931886046 1

# Energy components:
   Eewald =    -2600.7494801621492115
       EH =    -2224.3300631940355743
     Eloc =     4303.1679442344538984
      Enl =       -5.2833450942724527
      Exc =     -141.4491604013983590
 Exc_core =       81.2082855786838991
       KE =      142.4113136074902286
-------------------------------------
     Etot =     -445.0245054312280217
       TS =        0.0631043759934812
-------------------------------------
        F =     -445.0876098072214972

IonicMinimize: Iter:   1  F: -445.087609807221497  |grad|_K:  9.087e-03  alpha:  1.000e+00  linmin: -9.995e-01  t[s]:   1307.40

#--- Lowdin population analysis ---
# oxidation-state Pt +0.073 -0.049 +0.007 -0.049 +0.073

	FillingsUpdate:  mu: -0.197538756  nElectrons: 80.000000

-------- Electronic minimization -----------
Will mix electronic density at each iteration.
	FillingsUpdate:  mu: -0.197538756  nElectrons: 80.000000
	FillingsUpdate:  mu: -0.431948249  nElectrons: 80.000000
SCF: Cycle:  0   F: -442.539278604236756   dF: +1.440e+00   |Residual|: 7.940e-01   |deigs|: 3.046e-02  t[s]:   1357.79
	FillingsUpdate:  mu: -0.404339914  nElectrons: 80.000000
SCF: Cycle:  1   F: -444.342469871259652   dF: -1.803e+00   |Residual|: 4.920e-01   |deigs|: 3.540e-02  t[s]:   1392.92
	FillingsUpdate:  mu: -0.389181617  nElectrons: 80.000000
SCF: Cycle:  2   F: -443.857869269285288   dF: +4.846e-01   |Residual|: 3.358e-01   |deigs|: 1.961e-02  t[s]:   1427.81
	FillingsUpdate:  mu: -0.379311019  nElectrons: 80.000000
SCF: Cycle:  3   F: -445.060073046499099   dF: -1.202e+00   |Residual|: 8.264e-02   |deigs|: 2.815e-02  t[s]:   1462.91
	FillingsUpdate:  mu: -0.371543906  nElectrons: 80.000000
SCF: Cycle:  4   F: -445.023865677780293   dF: +3.621e-02   |Residual|: 7.409e-02   |deigs|: 8.414e-03  t[s]:   1497.82
	FillingsUpdate:  mu: -0.358585690  nElectrons: 80.000000
SCF: Cycle:  5   F: -445.043866901971739   dF: -2.000e-02   |Residual|: 4.498e-02   |deigs|: 1.280e-02  t[s]:   1532.82
	FillingsUpdate:  mu: -0.331196861  nElectrons: 80.000000
SCF: Cycle:  6   F: -445.085417598134541   dF: -4.155e-02   |Residual|: 2.490e-02   |deigs|: 2.645e-02  t[s]:   1567.78
	FillingsUpdate:  mu: -0.307319553  nElectrons: 80.000000
SCF: Cycle:  7   F: -445.086602868053831   dF: -1.185e-03   |Residual|: 1.684e-02   |deigs|: 2.310e-02  t[s]:   1602.73
	FillingsUpdate:  mu: -0.279066195  nElectrons: 80.000000
SCF: Cycle:  8   F: -445.089035681129701   dF: -2.433e-03   |Residual|: 1.538e-02   |deigs|: 2.732e-02  t[s]:   1637.51
	FillingsUpdate:  mu: -0.235429880  nElectrons: 80.000000
SCF: Cycle:  9   F: -445.091721762046063   dF: -2.686e-03   |Residual|: 8.938e-03   |deigs|: 4.295e-02  t[s]:   1672.67
	FillingsUpdate:  mu: -0.210556611  nElectrons: 80.000000
SCF: Cycle: 10   F: -445.091802536102932   dF: -8.077e-05   |Residual|: 6.665e-03   |deigs|: 2.473e-02  t[s]:   1707.84
	FillingsUpdate:  mu: -0.198117238  nElectrons: 80.000000
SCF: Cycle: 11   F: -445.091882887277450   dF: -8.035e-05   |Residual|: 4.895e-03   |deigs|: 1.219e-02  t[s]:   1743.01
	FillingsUpdate:  mu: -0.196622827  nElectrons: 80.000000
SCF: Cycle: 12   F: -445.091982835757960   dF: -9.995e-05   |Residual|: 1.315e-03   |deigs|: 1.729e-03  t[s]:   1777.93
	FillingsUpdate:  mu: -0.196271814  nElectrons: 80.000000
SCF: Cycle: 13   F: -445.091990444556473   dF: -7.609e-06   |Residual|: 4.095e-04   |deigs|: 7.771e-04  t[s]:   1811.46
	FillingsUpdate:  mu: -0.195872454  nElectrons: 80.000000
SCF: Cycle: 14   F: -445.091991302417000   dF: -8.579e-07   |Residual|: 1.424e-04   |deigs|: 4.820e-04  t[s]:   1843.26
	FillingsUpdate:  mu: -0.195847779  nElectrons: 80.000000
SCF: Cycle: 15   F: -445.091991344349651   dF: -4.193e-08   |Residual|: 8.834e-05   |deigs|: 1.627e-04  t[s]:   1874.55
	FillingsUpdate:  mu: -0.195816806  nElectrons: 80.000000
SCF: Cycle: 16   F: -445.091991375788382   dF: -3.144e-08   |Residual|: 2.847e-05   |deigs|: 8.128e-05  t[s]:   1909.27
	FillingsUpdate:  mu: -0.195804287  nElectrons: 80.000000
SCF: Cycle: 17   F: -445.091991378341618   dF: -2.553e-09   |Residual|: 1.337e-05   |deigs|: 3.433e-05  t[s]:   1940.79
	FillingsUpdate:  mu: -0.195798688  nElectrons: 80.000000
SCF: Cycle: 18   F: -445.091991379469448   dF: -1.128e-09   |Residual|: 4.371e-06   |deigs|: 1.538e-05  t[s]:   1975.33
SCF: Converged (|Delta E|<1.000000e-08 for 2 iters).


# Ionic positions in lattice coordinates:
ion Pt   0.000000000000000   0.000000000000000  -0.182875464153355 1
ion Pt   0.500000000000000   0.500000000000000  -0.096655288289675 1
ion Pt   0.000000000000000   0.000000000000000   0.000000000000000 1
ion Pt   0.500000000000000   0.500000000000000   0.096655288289675 1
ion Pt   0.000000000000000   0.000000000000000   0.182875464153355 1


# Forces in Lattice coordinates:
force Pt   0.000000000000000  -0.000000000000000   0.256223570497153 1
force Pt   0.000000000000000   0.000000000000000  -0.232127103795848 1
force Pt   0.000000000000000   0.000000000000000   0.000000000000000 1
force Pt   0.000000000000000   0.000000000000000   0.232127103796302 1
force Pt   0.000000000000000  -0.000000000000000  -0.256223570497153 1

# Energy components:
   Eewald =    -2580.4816123717191658
       EH =    -2204.0901371222603302
     Eloc =     4262.6381793782829845
      Enl =       -5.2627874275955726
      Exc =     -141.4787344615069173
 Exc_core =       81.2082953064617641
       KE =      142.4368204981811914
-------------------------------------
     Etot =     -445.0299762001563977
       TS =        0.0620151793130728
-------------------------------------
        F =     -445.0919913794694480

IonicMinimize: Iter:   2  F: -445.091991379469448  |grad|_K:  4.509e-03  alpha:  5.163e-01  linmin: -9.882e-01  t[s]:   1977.83

#--- Lowdin population analysis ---
# oxidation-state Pt +0.075 -0.048 +0.004 -0.048 +0.075

	FillingsUpdate:  mu: -0.195798688  nElectrons: 80.000000

-------- Electronic minimization -----------
Will mix electronic density at each iteration.
	FillingsUpdate:  mu: -0.195798688  nElectrons: 80.000000
	FillingsUpdate:  mu: -0.443808027  nElectrons: 80.000000
SCF: Cycle:  0   F: -441.753252576965792   dF: +2.345e+00   |Residual|: 7.859e-01   |deigs|: 3.141e-02  t[s]:   2028.07
	FillingsUpdate:  mu: -0.414615372  nElectrons: 80.000000
SCF: Cycle:  1   F: -444.033748683396936   dF: -2.280e+00   |Residual|: 5.837e-01   |deigs|: 4.170e-02  t[s]:   2063.03
	FillingsUpdate:  mu: -0.408686983  nElectrons: 80.000000
SCF: Cycle:  2   F: -444.173749640034998   dF: -1.400e-01   |Residual|: 2.624e-01   |deigs|: 2.391e-02  t[s]:   2097.93
	FillingsUpdate:  mu: -0.391631958  nElectrons: 80.000000
SCF: Cycle:  3   F: -445.058466425110169   dF: -8.847e-01   |Residual|: 7.301e-02   |deigs|: 2.768e-02  t[s]:   2132.94
	FillingsUpdate:  mu: -0.381931114  nElectrons: 80.000000
SCF: Cycle:  4   F: -445.033575873021789   dF: +2.489e-02   |Residual|: 6.602e-02   |deigs|: 9.500e-03  t[s]:   2168.03
	FillingsUpdate:  mu: -0.366159510  nElectrons: 80.000000
SCF: Cycle:  5   F: -445.049551538355843   dF: -1.598e-02   |Residual|: 4.707e-02   |deigs|: 1.527e-02  t[s]:   2203.02
	FillingsUpdate:  mu: -0.339524500  nElectrons: 80.000000
SCF: Cycle:  6   F: -445.087344807968748   dF: -3.779e-02   |Residual|: 2.421e-02   |deigs|: 2.571e-02  t[s]:   2238.08
	FillingsUpdate:  mu: -0.304233621  nElectrons: 80.000000
SCF: Cycle:  7   F: -445.088224491430424   dF: -8.797e-04   |Residual|: 2.389e-02   |deigs|: 3.403e-02  t[s]:   2273.18
	FillingsUpdate:  mu: -0.282133077  nElectrons: 80.000000
SCF: Cycle:  8   F: -445.090627878547252   dF: -2.403e-03   |Residual|: 1.654e-02   |deigs|: 2.138e-02  t[s]:   2308.43
	FillingsUpdate:  mu: -0.234957814  nElectrons: 80.000000
SCF: Cycle:  9   F: -445.092617483084155   dF: -1.990e-03   |Residual|: 1.242e-02   |deigs|: 4.647e-02  t[s]:   2343.59
	FillingsUpdate:  mu: -0.211414594  nElectrons: 80.000000
SCF: Cycle: 10   F: -445.092341999954670   dF: +2.755e-04   |Residual|: 1.368e-02   |deigs|: 2.325e-02  t[s]:   2378.65
	FillingsUpdate:  mu: -0.199366226  nElectrons: 80.000000
SCF: Cycle: 11   F: -445.093242192658408   dF: -9.002e-04   |Residual|: 4.479e-03   |deigs|: 1.198e-02  t[s]:   2413.63
	FillingsUpdate:  mu: -0.194272444  nElectrons: 80.000000
SCF: Cycle: 12   F: -445.093370964272083   dF: -1.288e-04   |Residual|: 1.789e-03   |deigs|: 5.076e-03  t[s]:   2448.62
	FillingsUpdate:  mu: -0.194750677  nElectrons: 80.000000
SCF: Cycle: 13   F: -445.093388604541587   dF: -1.764e-05   |Residual|: 6.446e-04   |deigs|: 8.052e-04  t[s]:   2482.68
	FillingsUpdate:  mu: -0.194051299  nElectrons: 80.000000
SCF: Cycle: 14   F: -445.093392829378899   dF: -4.225e-06   |Residual|: 1.755e-04   |deigs|: 7.620e-04  t[s]:   2515.73
	FillingsUpdate:  mu: -0.194026624  nElectrons: 80.000000
SCF: Cycle: 15   F: -445.093392922798103   dF: -9.342e-08   |Residual|: 7.825e-05   |deigs|: 2.017e-04  t[s]:   2545.22
	FillingsUpdate:  mu: -0.193992785  nElectrons: 80.000000
SCF: Cycle: 16   F: -445.093392953868090   dF: -3.107e-08   |Residual|: 2.340e-05   |deigs|: 1.331e-04  t[s]:   2580.03
	FillingsUpdate:  mu: -0.193977556  nElectrons: 80.000000
SCF: Cycle: 17   F: -445.093392956329978   dF: -2.462e-09   |Residual|: 8.767e-06   |deigs|: 2.787e-05  t[s]:   2612.25
	FillingsUpdate:  mu: -0.193983266  nElectrons: 80.000000
SCF: Cycle: 18   F: -445.093392956900232   dF: -5.703e-10   |Residual|: 3.488e-06   |deigs|: 1.448e-05  t[s]:   2645.74
SCF: Converged (|Delta E|<1.000000e-08 for 2 iters).


# Ionic positions in lattice coordinates:
ion Pt   0.000000000000000   0.000000000000000  -0.179304035581926 1
ion Pt   0.500000000000000   0.500000000000000  -0.098556091005529 1
ion Pt   0.000000000000000   0.000000000000000   0.000000000000000 1
ion Pt   0.500000000000000   0.500000000000000   0.098556091005529 1
ion Pt   0.000000000000000   0.000000000000000   0.179304035581926 1


# Forces in Lattice coordinates:
force Pt   0.000000000000000   0.000000000000000  -0.009136724899865 1
force Pt  -0.000000000000000   0.000000000000000  -0.035184431846098 1
force Pt   0.000000000000000   0.000000000000000   0.000000000000000 1
force Pt  -0.000000000000000   0.000000000000000   0.035184431845643 1
force Pt   0.000000000000000   0.000000000000000   0.009136724899864 1

# Energy components:
   Eewald =    -2558.4352942661953421
       EH =    -2182.0888094532042487
     Eloc =     4218.5583310110350794
      Enl =       -5.2364010008751070
      Exc =     -141.5145918113587982
 Exc_core =       81.2082962327808104
       KE =      142.4757697723890431
-------------------------------------
     Etot =     -445.0326995154281349
       TS =        0.0606934414720937
-------------------------------------
        F =     -445.0933929569002316

IonicMinimize: Iter:   3  F: -445.093392956900232  |grad|_K:  4.741e-04  alpha:  9.135e-01  linmin: -2.329e-01  t[s]:   2648.25

#--- Lowdin population analysis ---
# oxidation-state Pt +0.077 -0.047 +0.002 -0.047 +0.077

	FillingsUpdate:  mu: -0.193983266  nElectrons: 80.000000

-------- Electronic minimization -----------
Will mix electronic density at each iteration.
	FillingsUpdate:  mu: -0.193983266  nElectrons: 80.000000
	FillingsUpdate:  mu: -0.193837259  nElectrons: 80.000000
SCF: Cycle:  0   F: -445.093398265084318   dF: -9.457e-05   |Residual|: 1.947e-03   |deigs|: 4.706e-06  t[s]:   2698.43
	FillingsUpdate:  mu: -0.193889794  nElectrons: 80.000000
SCF: Cycle:  1   F: -445.093405424406455   dF: -7.159e-06   |Residual|: 9.673e-04   |deigs|: 9.545e-05  t[s]:   2721.52
	FillingsUpdate:  mu: -0.193896915  nElectrons: 80.000000
SCF: Cycle:  2   F: -445.093407186948468   dF: -1.763e-06   |Residual|: 1.036e-03   |deigs|: 9.289e-05  t[s]:   2744.33
	FillingsUpdate:  mu: -0.193901007  nElectrons: 80.000000
SCF: Cycle:  3   F: -445.093411763207314   dF: -4.576e-06   |Residual|: 1.976e-04   |deigs|: 5.560e-05  t[s]:   2768.34
	FillingsUpdate:  mu: -0.193906170  nElectrons: 80.000000
SCF: Cycle:  4   F: -445.093411844274783   dF: -8.107e-08   |Residual|: 1.404e-04   |deigs|: 1.275e-05  t[s]:   2790.32
	FillingsUpdate:  mu: -0.193914796  nElectrons: 80.000000
SCF: Cycle:  5   F: -445.093411867753900   dF: -2.348e-08   |Residual|: 5.269e-05   |deigs|: 1.311e-05  t[s]:   2819.58
	FillingsUpdate:  mu: -0.193927300  nElectrons: 80.000000
SCF: Cycle:  6   F: -445.093411886160368   dF: -1.841e-08   |Residual|: 1.961e-05   |deigs|: 1.535e-05  t[s]:   2854.18
	FillingsUpdate:  mu: -0.193949324  nElectrons: 80.000000
SCF: Cycle:  7   F: -445.093411893582811   dF: -7.422e-09   |Residual|: 1.985e-05   |deigs|: 2.159e-05  t[s]:   2886.45
	FillingsUpdate:  mu: -0.193975299  nElectrons: 80.000000
SCF: Cycle:  8   F: -445.093411895949885   dF: -2.367e-09   |Residual|: 1.151e-05   |deigs|: 2.532e-05  t[s]:   2918.94
SCF: Converged (|Delta E|<1.000000e-08 for 2 iters).


# Ionic positions in lattice coordinates:
ion Pt   0.000000000000000   0.000000000000000  -0.179420265970804 1
ion Pt   0.500000000000000   0.500000000000000  -0.098886595476367 1
ion Pt   0.000000000000000   0.000000000000000   0.000000000000000 1
ion Pt   0.500000000000000   0.500000000000000   0.098886595476367 1
ion Pt   0.000000000000000   0.000000000000000   0.179420265970804 1


# Forces in Lattice coordinates:
force Pt   0.000000000000000  -0.000000000000000  -0.011006754559408 1
force Pt   0.000000000000000   0.000000000000000  -0.019120422397963 1
force Pt   0.000000000000000   0.000000000000000   0.000000000000000 1
force Pt   0.000000000000000   0.000000000000000   0.019120422398418 1
force Pt   0.000000000000000  -0.000000000000000   0.011006754559408 1

# Energy components:
   Eewald =    -2561.0629880803899141
       EH =    -2184.7186059452842528
     Eloc =     4223.8180854068505141
      Enl =       -5.2364775500495497
      Exc =     -141.5127395172503384
 Exc_core =       81.2082957721986531
       KE =      142.4717316916190839
-------------------------------------
     Etot =     -445.0326982223058394
       TS =        0.0607136736440407
-------------------------------------
        F =     -445.0934118959498846

IonicMinimize: Iter:   4  F: -445.093411895949885  |grad|_K:  2.877e-04  alpha:  1.000e+00  linmin: -9.831e-01  t[s]:   2921.45

#--- Lowdin population analysis ---
# oxidation-state Pt +0.077 -0.047 +0.001 -0.047 +0.077

	FillingsUpdate:  mu: -0.193975299  nElectrons: 80.000000

-------- Electronic minimization -----------
Will mix electronic density at each iteration.
	FillingsUpdate:  mu: -0.193975299  nElectrons: 80.000000
	FillingsUpdate:  mu: -0.193228828  nElectrons: 80.000000
SCF: Cycle:  0   F: -445.093172271348465   dF: +1.122e-05   |Residual|: 4.100e-03   |deigs|: 9.318e-06  t[s]:   2972.59
	FillingsUpdate:  mu: -0.193445318  nElectrons: 80.000000
SCF: Cycle:  1   F: -445.093325931597974   dF: -1.537e-04   |Residual|: 4.671e-03   |deigs|: 4.575e-04  t[s]:   2996.30
	FillingsUpdate:  mu: -0.193469492  nElectrons: 80.000000
SCF: Cycle:  2   F: -445.093353787799572   dF: -2.786e-05   |Residual|: 2.326e-03   |deigs|: 3.354e-04  t[s]:   3017.94
	FillingsUpdate:  mu: -0.193513403  nElectrons: 80.000000
SCF: Cycle:  3   F: -445.093413086917394   dF: -5.930e-05   |Residual|: 4.181e-04   |deigs|: 1.697e-04  t[s]:   3039.55
	FillingsUpdate:  mu: -0.193548005  nElectrons: 80.000000
SCF: Cycle:  4   F: -445.093413527815926   dF: -4.409e-07   |Residual|: 3.536e-04   |deigs|: 8.036e-05  t[s]:   3061.06
	FillingsUpdate:  mu: -0.193589294  nElectrons: 80.000000
SCF: Cycle:  5   F: -445.093413787948123   dF: -2.601e-07   |Residual|: 1.585e-04   |deigs|: 9.330e-05  t[s]:   3095.83
	FillingsUpdate:  mu: -0.193674361  nElectrons: 80.000000
SCF: Cycle:  6   F: -445.093413963576609   dF: -1.756e-07   |Residual|: 9.003e-05   |deigs|: 2.222e-04  t[s]:   3130.56
	FillingsUpdate:  mu: -0.193767338  nElectrons: 80.000000
SCF: Cycle:  7   F: -445.093414088953068   dF: -1.254e-07   |Residual|: 7.019e-05   |deigs|: 1.181e-04  t[s]:   3163.76
	FillingsUpdate:  mu: -0.193949121  nElectrons: 80.000000
SCF: Cycle:  8   F: -445.093414137700506   dF: -4.875e-08   |Residual|: 4.835e-05   |deigs|: 1.734e-04  t[s]:   3196.60
	FillingsUpdate:  mu: -0.194135259  nElectrons: 80.000000
SCF: Cycle:  9   F: -445.093414229527241   dF: -9.183e-08   |Residual|: 3.015e-05   |deigs|: 4.245e-04  t[s]:   3230.16
	FillingsUpdate:  mu: -0.194210446  nElectrons: 80.000000
SCF: Cycle: 10   F: -445.093414257515462   dF: -2.799e-08   |Residual|: 1.800e-05   |deigs|: 2.640e-04  t[s]:   3260.95
	FillingsUpdate:  mu: -0.194284553  nElectrons: 80.000000
SCF: Cycle: 11   F: -445.093414265153342   dF: -7.638e-09   |Residual|: 6.218e-06   |deigs|: 2.034e-04  t[s]:   3291.91
	FillingsUpdate:  mu: -0.194284901  nElectrons: 80.000000
SCF: Cycle: 12   F: -445.093414265578019   dF: -4.247e-10   |Residual|: 2.146e-06   |deigs|: 2.875e-05  t[s]:   3320.79
SCF: Converged (|Delta E|<1.000000e-08 for 2 iters).


# Ionic positions in lattice coordinates:
ion Pt   0.000000000000000   0.000000000000000  -0.179812365485027 1
ion Pt   0.500000000000000   0.500000000000000  -0.099405266870198 1
ion Pt   0.000000000000000   0.000000000000000   0.000000000000000 1
ion Pt   0.500000000000000   0.500000000000000   0.099405266870198 1
ion Pt   0.000000000000000   0.000000000000000   0.179812365485027 1


# Forces in Lattice coordinates:
force Pt   0.000000000000000   0.000000000000000   0.010117875516473 1
force Pt   0.000000000000000   0.000000000000000   0.008508986685423 1
force Pt   0.000000000000000   0.000000000000000   0.000000000000000 1
force Pt   0.000000000000000   0.000000000000000  -0.008508986684968 1
force Pt   0.000000000000000   0.000000000000000  -0.010117875517383 1

# Energy components:
   Eewald =    -2567.0165322923412532
       EH =    -2190.6659925055027998
     Eloc =     4235.7247026835511861
      Enl =       -5.2380024697287810
      Exc =     -141.5075586404410615
 Exc_core =       81.2082946936945120
       KE =      142.4624969464171613
-------------------------------------
     Etot =     -445.0325915843511098
       TS =        0.0608226812269201
-------------------------------------
        F =     -445.0934142655780192

IonicMinimize: Iter:   5  F: -445.093414265578019  |grad|_K:  1.724e-04  alpha:  1.000e+00  linmin:  9.750e-01  t[s]:   3323.35

#--- Lowdin population analysis ---
# oxidation-state Pt +0.077 -0.047 +0.001 -0.047 +0.077

	FillingsUpdate:  mu: -0.194284901  nElectrons: 80.000000

-------- Electronic minimization -----------
Will mix electronic density at each iteration.
	FillingsUpdate:  mu: -0.194284901  nElectrons: 80.000000
	FillingsUpdate:  mu: -0.194724430  nElectrons: 80.000000
SCF: Cycle:  0   F: -445.093359733386023   dF: +3.202e-05   |Residual|: 1.892e-03   |deigs|: 1.433e-05  t[s]:   3368.13
	FillingsUpdate:  mu: -0.194619153  nElectrons: 80.000000
SCF: Cycle:  1   F: -445.093384525329441   dF: -2.479e-05   |Residual|: 2.700e-03   |deigs|: 2.539e-04  t[s]:   3389.79
	FillingsUpdate:  mu: -0.194609161  nElectrons: 80.000000
SCF: Cycle:  2   F: -445.093409170817040   dF: -2.465e-05   |Residual|: 8.094e-04   |deigs|: 1.724e-04  t[s]:   3411.56
	FillingsUpdate:  mu: -0.194584652  nElectrons: 80.000000
SCF: Cycle:  3   F: -445.093417776850060   dF: -8.606e-06   |Residual|: 2.556e-04   |deigs|: 6.185e-05  t[s]:   3432.89
	FillingsUpdate:  mu: -0.194570532  nElectrons: 80.000000
SCF: Cycle:  4   F: -445.093418018083412   dF: -2.412e-07   |Residual|: 1.627e-04   |deigs|: 2.264e-05  t[s]:   3453.92
	FillingsUpdate:  mu: -0.194545661  nElectrons: 80.000000
SCF: Cycle:  5   F: -445.093418096395169   dF: -7.831e-08   |Residual|: 7.413e-05   |deigs|: 2.805e-05  t[s]:   3480.36
	FillingsUpdate:  mu: -0.194494402  nElectrons: 80.000000
SCF: Cycle:  6   F: -445.093418156529253   dF: -6.013e-08   |Residual|: 4.634e-05   |deigs|: 5.186e-05  t[s]:   3514.20
	FillingsUpdate:  mu: -0.194434806  nElectrons: 80.000000
SCF: Cycle:  7   F: -445.093418196336870   dF: -3.981e-08   |Residual|: 3.456e-05   |deigs|: 5.640e-05  t[s]:   3543.33
	FillingsUpdate:  mu: -0.194350354  nElectrons: 80.000000
SCF: Cycle:  8   F: -445.093418206345746   dF: -1.001e-08   |Residual|: 2.484e-05   |deigs|: 8.279e-05  t[s]:   3568.49
	FillingsUpdate:  mu: -0.194254635  nElectrons: 80.000000
SCF: Cycle:  9   F: -445.093418212517122   dF: -6.171e-09   |Residual|: 1.477e-05   |deigs|: 1.268e-04  t[s]:   3602.69
	FillingsUpdate:  mu: -0.194220475  nElectrons: 80.000000
SCF: Cycle: 10   F: -445.093418214330086   dF: -1.813e-09   |Residual|: 8.245e-06   |deigs|: 5.797e-05  t[s]:   3634.96
SCF: Converged (|Delta E|<1.000000e-08 for 2 iters).


# Ionic positions in lattice coordinates:
ion Pt   0.000000000000000   0.000000000000000  -0.179642110344693 1
ion Pt   0.500000000000000   0.500000000000000  -0.099232117846755 1
ion Pt   0.000000000000000   0.000000000000000   0.000000000000000 1
ion Pt   0.500000000000000   0.500000000000000   0.099232117846755 1
ion Pt   0.000000000000000   0.000000000000000   0.179642110344693 1


# Forces in Lattice coordinates:
force Pt   0.000000000000000   0.000000000000000   0.002655641468168 1
force Pt   0.000000000000000   0.000000000000000   0.001436601513487 1
force Pt   0.000000000000000   0.000000000000000   0.000000000000000 1
force Pt   0.000000000000000   0.000000000000000  -0.001436601513487 1
force Pt   0.000000000000000   0.000000000000000  -0.002655641469078 1

# Energy components:
   Eewald =    -2564.6858254895046230
       EH =    -2188.3361228843018580
     Eloc =     4231.0617369462070201
      Enl =       -5.2372244842988698
      Exc =     -141.5097503790873361
 Exc_core =       81.2082950849837317
       KE =      142.4662447444792406
-------------------------------------
     Etot =     -445.0326464615226314
       TS =        0.0607717528074303
-------------------------------------
        F =     -445.0934182143300859

IonicMinimize: Iter:   6  F: -445.093418214330086  |grad|_K:  3.937e-05  alpha:  1.000e+00  linmin: -9.559e-01  t[s]:   3637.45
IonicMinimize: Converged (|grad|_K<1.000000e-04).

#--- Lowdin population analysis ---
# oxidation-state Pt +0.077 -0.047 +0.001 -0.047 +0.077


Dumping '110-Vacuum.fillings' ... done
Dumping '110-Vacuum.wfns' ... done
Dumping '110-Vacuum.ionpos' ... done
Dumping '110-Vacuum.eigenvals' ... done
End date and time: Mon Mar 11 15:07:35 2019  (Duration: 0-1:00:42.06)
Done!
