--------------------------------------------------------------------------
Initialization of PSM library failed.

  Error: PSM is in the finalized state
--------------------------------------------------------------------------
--------------------------------------------------------------------------
The OpenFabrics (openib) BTL failed to initialize while trying to
allocate some locked memory.  This typically can indicate that the
memlock limits are set too low.  For most HPC installations, the
memlock limits should be set to "unlimited".  The failure occured
here:

  Local host:    node2003
  OMPI source:   btl_openib.c:753
  Function:      ompi_free_list_init_ex_new()
  Device:        qib0
  Memlock limit: 65536

You may need to consult with your system administrator to get this
problem fixed.  This FAQ entry on the Open MPI web site may also be
helpful:

    http://www.open-mpi.org/faq/?category=openfabrics#ib-locked-pages
--------------------------------------------------------------------------

*************** JDFTx 1.4.2 (git hash 74b6e54) ***************

Start date and time: Mon Mar 11 15:59:58 2019
Executable jdftx with command-line: -i Solvated.in
Running on hosts (process indices):  node2003.physics.cornell.edu (0)
Divided in process groups (process indices):  0 (0)
Resource initialization completed at t[s]:      0.00
Run totals: 1 processes, 12 threads, 0 GPUs


Input parsed successfully to the following command list (including defaults):

basis kpoint-dependent
coords-type Lattice
core-overlap-check vector
coulomb-interaction Slab 001
coulomb-truncation-embed 0 0 0
davidson-band-ratio 1.1
dump End None
dump-name $INPUT.$VAR
elec-cutoff 20 100
elec-eigen-algo Davidson
elec-ex-corr gga-PBEsol
elec-smearing Fermi 0.01
electronic-minimize  \
	dirUpdateScheme      FletcherReeves \
	linminMethod         DirUpdateRecommended \
	nIterations          100 \
	history              15 \
	knormThreshold       0 \
	energyDiffThreshold  1e-08 \
	nEnergyDiff          2 \
	alphaTstart          1 \
	alphaTmin            1e-10 \
	updateTestStepSize   yes \
	alphaTreduceFactor   0.1 \
	alphaTincreaseFactor 3 \
	nAlphaAdjustMax      3 \
	wolfeEnergy          0.0001 \
	wolfeGradient        0.9 \
	fdTest               no
electronic-scf  \
	nIterations	50 \
	energyDiffThreshold	1e-08 \
	residualThreshold	1e-07 \
	mixFraction	0.5 \
	qMetric	0.8 \
	history	10 \
	nEigSteps	2 \
	eigDiffThreshold	1e-08 \
	mixedVariable	Density \
	qKerker	0.8 \
	qKappa	-1 \
	verbose	no \
	mixFractionMag	1.5
exchange-regularization WignerSeitzTruncated
fluid LinearPCM 298.000000 1.013250
fluid-anion F- 1 MeanFieldLJ \
	epsBulk 1 \
	pMol 0 \
	epsInf 1 \
	Pvap 0 \
	sigmaBulk 0 \
	Rvdw 2.24877 \
	Res 0 \
	tauNuc 343133 \
	omegaEl 0.55124 \
	gammaEl 0.257245
fluid-cation Na+ 1 MeanFieldLJ \
	epsBulk 1 \
	pMol 0 \
	epsInf 1 \
	Pvap 0 \
	sigmaBulk 0 \
	Rvdw 2.19208 \
	Res 0 \
	tauNuc 343133 \
	omegaEl 0.55124 \
	gammaEl 0.257245
fluid-ex-corr lda-TF lda-PZ
fluid-gummel-loop 10 1.000000e-05
fluid-minimize  \
	dirUpdateScheme      PolakRibiere \
	linminMethod         DirUpdateRecommended \
	nIterations          400 \
	history              15 \
	knormThreshold       1e-11 \
	energyDiffThreshold  0 \
	nEnergyDiff          2 \
	alphaTstart          1 \
	alphaTmin            1e-10 \
	updateTestStepSize   yes \
	alphaTreduceFactor   0.1 \
	alphaTincreaseFactor 3 \
	nAlphaAdjustMax      6 \
	wolfeEnergy          0.0001 \
	wolfeGradient        0.9 \
	fdTest               no
fluid-solvent H2O 55.338 ScalarEOS \
	epsBulk 78.4 \
	pMol 0.92466 \
	epsInf 1.77 \
	Pvap 1.06736e-10 \
	sigmaBulk 4.62e-05 \
	Rvdw 2.61727 \
	Res 1.42 \
	tauNuc 343133 \
	omegaEl 0.55124 \
	gammaEl 0.257245
forces-output-coords Positions
initial-state 111-Vacuum.$VAR
ion Pt   0.333333333333333  -0.333333333333333  -0.237854954839658 1
ion Pt  -0.333333333333333   0.333333333333333  -0.118499180814196 1
ion Pt   0.000000000000000   0.000000000000000   0.000000000000000 1
ion Pt   0.333333333333333  -0.333333333333333   0.118499180814196 1
ion Pt  -0.333333333333333   0.333333333333333   0.237854954839658 1
ion-species GBRV/$ID_pbesol.uspp
ion-width Ecut
ionic-minimize  \
	dirUpdateScheme      L-BFGS \
	linminMethod         DirUpdateRecommended \
	nIterations          10 \
	history              15 \
	knormThreshold       0.0001 \
	energyDiffThreshold  1e-06 \
	nEnergyDiff          2 \
	alphaTstart          1 \
	alphaTmin            1e-10 \
	updateTestStepSize   yes \
	alphaTreduceFactor   0.1 \
	alphaTincreaseFactor 3 \
	nAlphaAdjustMax      3 \
	wolfeEnergy          0.0001 \
	wolfeGradient        0.9 \
	fdTest               no
kpoint   0.000000000000   0.000000000000   0.000000000000  1.00000000000000
kpoint-folding 12 12 1 
latt-move-scale 1 1 1
latt-scale 1 1 1 
lattice Hexagonal 5.23966 36
lattice-minimize  \
	dirUpdateScheme      L-BFGS \
	linminMethod         DirUpdateRecommended \
	nIterations          0 \
	history              15 \
	knormThreshold       0 \
	energyDiffThreshold  1e-06 \
	nEnergyDiff          2 \
	alphaTstart          1 \
	alphaTmin            1e-10 \
	updateTestStepSize   yes \
	alphaTreduceFactor   0.1 \
	alphaTincreaseFactor 3 \
	nAlphaAdjustMax      3 \
	wolfeEnergy          0.0001 \
	wolfeGradient        0.9 \
	fdTest               no
lcao-params -1 1e-06 0.01
pcm-variant CANDLE
spintype no-spin
subspace-rotation-factor 1 yes
symmetries automatic
symmetry-threshold 0.0001



---------- Setting up symmetries ----------

Found 24 point-group symmetries of the bravais lattice
Found 12 space-group symmetries with basis
Applied RMS atom displacement 3.00398e-15 bohrs to make symmetries exact.

---------- Initializing the Grid ----------
R = 
[    5.23966   -2.61983          0  ]
[          0    4.53768          0  ]
[          0          0         36  ]
unit cell volume = 855.932
G =
[    1.19916   0.692335         -0  ]
[          0    1.38467          0  ]
[          0         -0   0.174533  ]
Minimum fftbox size, Smin = [  24  24  164  ]
Chosen fftbox size, S = [  24  24  168  ]

---------- Initializing tighter grid for wavefunction operations ----------
R = 
[    5.23966   -2.61983          0  ]
[          0    4.53768          0  ]
[          0          0         36  ]
unit cell volume = 855.932
G =
[    1.19916   0.692335         -0  ]
[          0    1.38467          0  ]
[          0         -0   0.174533  ]
Minimum fftbox size, Smin = [  24  24  148  ]
Chosen fftbox size, S = [  24  24  150  ]

---------- Exchange Correlation functional ----------
Initalized PBEsol GGA exchange.
Initalized PBEsol GGA correlation.

---------- Setting up pseudopotentials ----------
Width of ionic core gaussian charges (only for fluid interactions / plotting) set to 0.397384

Reading pseudopotential file '/home/jfm343/JDFTXDIR/build/pseudopotentials/GBRV/pt_pbesol.uspp':
  Title: Pt.  Created by USPP 7.3.6 on 22-9-15
  Reference state energy: -104.899005.  16 valence electrons in orbitals:
    |510>  occupation: 6  eigenvalue: -2.158847
    |520>  occupation: 9.5  eigenvalue: -0.336311
    |600>  occupation: 0  eigenvalue: -0.320324
    |610>  occupation: 0  eigenvalue: -0.119800
  lMax: 2  lLocal: 3  QijEcut: 5.5
  6 projectors sampled on a log grid with 745 points:
    l: 0  eig: -0.320324  rCut: 2.45
    l: 0  eig: 1.500000  rCut: 2.45
    l: 1  eig: -2.158847  rCut: 1.6
    l: 1  eig: -0.119800  rCut: 1.6
    l: 2  eig: -0.500000  rCut: 1.6
    l: 2  eig: -0.336311  rCut: 1.6
  Partial core density with radius 1.1
  Transforming core density to a uniform radial grid of dG=0.02 with 1620 points.
  Transforming local potential to a uniform radial grid of dG=0.02 with 1620 points.
  Transforming nonlocal projectors to a uniform radial grid of dG=0.02 with 432 points.
  Transforming density augmentations to a uniform radial grid of dG=0.02 with 1620 points.
  Transforming atomic orbitals to a uniform radial grid of dG=0.02 with 432 points.
  Core radius for overlap checks: 2.45 bohrs.

Initialized 1 species with 5 total atoms.

Folded 1 k-points by 12x12x1 to 144 k-points.

---------- Setting up k-points, bands, fillings ----------
Reduced to 19 k-points under symmetry. 
Computing the number of bands and number of electrons
Reading initial fillings from file 111-Vacuum.fillings.
nElectrons:  80.000000   nBands: 60   nStates: 19

----- Setting up reduced wavefunction bases (one per k-point) -----
average nbasis = 3657.132 , ideal nbasis = 3656.607

---------- Setting up coulomb interaction ----------
Fluid mode embedding: using embedded box, but periodic Coulomb kernel.
(Fluid response is responsible for (approximate) separation between periodic images.)
Setting up double-sized grid for truncated Coulomb potentials:
R = 
[    5.23966   -2.61983          0  ]
[          0    4.53768          0  ]
[          0          0         72  ]
unit cell volume = 1711.86
G =
[    1.19916   0.692335         -0  ]
[          0    1.38467          0  ]
[          0         -0  0.0872665  ]
Chosen fftbox size, S = [  24  24  336  ]
Integer grid location selected as the embedding center:
   Grid: [  0  0  0  ]
   Lattice: [  0  0  0  ]
   Cartesian: [  0  0  0  ]
Constructing Wigner-Seitz cell: 8 faces (6 quadrilaterals, 2 hexagons)
Range-separation parameter for embedded mesh potentials due to point charges: 0.589462 bohrs.

Initializing van der Waals corrections
	NOTE: vdW corrections apply only for interactions with fluid.
	Pt:  C6:  815.23 Eh-a0^6  R0: 3.326 a0 (WARNING: beyond Grimme's data set)

---------- Setting up ewald sum ----------
Optimum gaussian width for ewald sums = 3.649540 bohr.
Real space sum over 1805 unit cells with max indices [  9  9  2  ]
Reciprocal space sum over 5103 terms with max indices [  4  4  31  ]

---------- Allocating electronic variables ----------
Initializing wave functions:  reading from '111-Vacuum.wfns'
----- createFluidSolver() ----- (Fluid-side solver setup)
   Initializing fluid molecule 'H2O'
     Initializing site 'O'
       Electron density: proportional to exp(-r/0.36935)*erfc((r-0.51523)/0.36823) with norm 6.826
       Charge density: gaussian nuclear width 0.478731 with net site charge 0.826
       Polarizability: cuspless exponential with width 0.32 and norm 3.73
       Hard sphere radius: 2.57003 bohrs
       Positions in reference frame:
         [ +0.000000 +0.000000 +0.000000 ]
     Initializing site 'H'
       Electron density: proportional to exp(-r/0.34641)*erfc((r-0)/0.390882) with norm 0.587
       Charge density: gaussian nuclear width 0.377945 with net site charge -0.413
       Polarizability: cuspless exponential with width 0.39 and norm 3.3
       Positions in reference frame:
         [ +0.000000 -1.441945 +1.122523 ]
         [ +0.000000 +1.441945 +1.122523 ]
     Net charge: 0   dipole magnitude: 0.927204
     Initializing spherical shell mfKernel with radius 2.61727 Bohr
     deltaS corrections:
       site 'O': -7.54299
       site 'H': -6.83917
   Initializing fluid molecule 'Na+'
     Initializing site 'Na'
       Electron density: proportional to exp(-r/0.19682)*erfc((r-0.71491)/0.41314) with norm 8.1383
       Charge density: gaussian nuclear width 0.365347 with net site charge -1
       Hard sphere radius: 1.86327 bohrs
       Positions in reference frame:
         [ +0.000000 +0.000000 +0.000000 ]
     Net charge: -1   dipole magnitude: 0
     Initializing gaussian mfKernel with width: 1.55004 Bohr
     deltaS corrections:
       site 'Na': -22.3555
   Initializing fluid molecule 'F-'
     Initializing site 'F'
       Electron density: proportional to exp(-r/0.38886)*erfc((r-0)/0.438782) with norm 8
       Charge density: gaussian nuclear width 0.374796 with net site charge 1
       Hard sphere radius: 2.39995 bohrs
       Positions in reference frame:
         [ +0.000000 +0.000000 +0.000000 ]
     Net charge: 1   dipole magnitude: 0
     Initializing gaussian mfKernel with width: 1.59012 Bohr
     deltaS corrections:
       site 'F': -9.04335

Correction to mu due to finite nuclear width = -0.0463682
   Cavity determined by nc: 0.00142 and sigma: 0.707107
   Nonlocal vdW cavity from gaussian model electron density with norm = 8 and sigma = 0.993594 bohr
   Charge asymmetry in cavity with sensitivity pCavity = 36.5 e-bohr/Eh
   Electrostatic cavity expanded by eta = 1.46 bohrs
   Weighted density cavitation model constrained by Nbulk: 0.0049383 bohr^-3, Pvap: 3.14029 kPa, Rvdw: 2.61727 bohr and sigmaBulk: 4.62e-05 Eh/bohr^2 at T: 298 K.
   Weighted density dispersion model using vdW pair potentials with single solvent site with sqrtC6eff: 0.77 SI.


---- Citations for features of the code used in this run ----

   Software package:
      R. Sundararaman, K. Letchworth-Weaver, K.A. Schwarz, D. Gunceler, Y. Ozhabes and T.A. Arias, 'JDFTx: software for joint density-functional theory', SoftwareX 6, 278 (2017)

   gga-PBEsol exchange-correlation functional:
      J.P. Perdew et al., Phys. Rev. Lett. 100, 136406 (2008)

   Pseudopotentials:
      KF Garrity, JW Bennett, KM Rabe and D Vanderbilt, Comput. Mater. Sci. 81, 446 (2014)

   Truncated Coulomb potentials:
      R. Sundararaman and T.A. Arias, Phys. Rev. B 87, 165122 (2013)

   Van der Waals correction pair-potentials:
      S. Grimme, J. Comput. Chem. 27, 1787 (2006)

   Charge-asymmetric nonlocally-determined local-electric (CANDLE) solvation model:
      R. Sundararaman and W.A. Goddard III, J. Chem. Phys. 142, 064107 (2015)

This list may not be complete. Please suggest additional citations or
report any other bugs at https://github.com/shankar1729/jdftx/issues

Initialization completed successfully at t[s]:      5.02

	Linear fluid (dielectric constant: 78.4, screening length: 5.74355 Bohr) occupying 0.594525 of unit cell:	Completed after 18 iterations at t[s]:      7.83

-------- Electronic minimization -----------
Will mix electronic density at each iteration.
	FillingsUpdate:  mu: -0.211237284  nElectrons: 80.000000
	Linear fluid (dielectric constant: 78.4, screening length: 5.74355 Bohr) occupying 0.594525 of unit cell:	Completed after 0 iterations at t[s]:      9.28
	FillingsUpdate:  mu: -0.205023979  nElectrons: 80.000000
	Linear fluid (dielectric constant: 78.4, screening length: 5.74355 Bohr) occupying 0.596203 of unit cell:	Completed after 14 iterations at t[s]:     22.17
SCF: Cycle:  0   F: -445.151231976754445   dF: +7.875e-06   |Residual|: 1.276e-03   |deigs|: 1.690e-04  t[s]:     22.45
	Linear fluid (dielectric constant: 78.4, screening length: 5.74355 Bohr) occupying 0.594320 of unit cell:	Completed after 13 iterations at t[s]:     22.90
	FillingsUpdate:  mu: -0.204169357  nElectrons: 80.000000
	Linear fluid (dielectric constant: 78.4, screening length: 5.74355 Bohr) occupying 0.596089 of unit cell:	Completed after 14 iterations at t[s]:     34.67
SCF: Cycle:  1   F: -445.151269635486869   dF: -3.766e-05   |Residual|: 1.252e-03   |deigs|: 8.212e-04  t[s]:     34.90
	Linear fluid (dielectric constant: 78.4, screening length: 5.74355 Bohr) occupying 0.594357 of unit cell:	Completed after 14 iterations at t[s]:     35.38
	FillingsUpdate:  mu: -0.203965524  nElectrons: 80.000000
	Linear fluid (dielectric constant: 78.4, screening length: 5.74355 Bohr) occupying 0.596088 of unit cell:	Completed after 14 iterations at t[s]:     45.48
SCF: Cycle:  2   F: -445.151202948443540   dF: +6.669e-05   |Residual|: 1.696e-03   |deigs|: 2.481e-04  t[s]:     45.71
	Linear fluid (dielectric constant: 78.4, screening length: 5.74355 Bohr) occupying 0.594380 of unit cell:	Completed after 14 iterations at t[s]:     46.19
	FillingsUpdate:  mu: -0.203571818  nElectrons: 80.000000
	Linear fluid (dielectric constant: 78.4, screening length: 5.74355 Bohr) occupying 0.596068 of unit cell:	Completed after 14 iterations at t[s]:     55.33
SCF: Cycle:  3   F: -445.151275273022577   dF: -7.232e-05   |Residual|: 4.954e-04   |deigs|: 3.814e-04  t[s]:     55.59
	Linear fluid (dielectric constant: 78.4, screening length: 5.74355 Bohr) occupying 0.594507 of unit cell:	Completed after 14 iterations at t[s]:     56.09
	FillingsUpdate:  mu: -0.203140053  nElectrons: 80.000000
	Linear fluid (dielectric constant: 78.4, screening length: 5.74355 Bohr) occupying 0.596058 of unit cell:	Completed after 14 iterations at t[s]:     65.77
SCF: Cycle:  4   F: -445.151275669621953   dF: -3.966e-07   |Residual|: 6.332e-04   |deigs|: 4.142e-04  t[s]:     66.01
	Linear fluid (dielectric constant: 78.4, screening length: 5.74355 Bohr) occupying 0.594780 of unit cell:	Completed after 14 iterations at t[s]:     66.52
	FillingsUpdate:  mu: -0.202454198  nElectrons: 80.000000
	Linear fluid (dielectric constant: 78.4, screening length: 5.74355 Bohr) occupying 0.596048 of unit cell:	Completed after 12 iterations at t[s]:     79.63
SCF: Cycle:  5   F: -445.151279786797829   dF: -4.117e-06   |Residual|: 2.220e-04   |deigs|: 6.586e-04  t[s]:     80.16
	Linear fluid (dielectric constant: 78.4, screening length: 5.74355 Bohr) occupying 0.595284 of unit cell:	Completed after 10 iterations at t[s]:     80.68
	FillingsUpdate:  mu: -0.201938166  nElectrons: 80.000000
	Linear fluid (dielectric constant: 78.4, screening length: 5.74355 Bohr) occupying 0.596043 of unit cell:	Completed after 9 iterations at t[s]:     90.69
SCF: Cycle:  6   F: -445.151280560804764   dF: -7.740e-07   |Residual|: 1.488e-04   |deigs|: 4.947e-04  t[s]:     91.12
	Linear fluid (dielectric constant: 78.4, screening length: 5.74355 Bohr) occupying 0.595792 of unit cell:	Completed after 10 iterations at t[s]:     91.59
	FillingsUpdate:  mu: -0.201656266  nElectrons: 80.000000
	Linear fluid (dielectric constant: 78.4, screening length: 5.74355 Bohr) occupying 0.596032 of unit cell:	Completed after 10 iterations at t[s]:    102.36
SCF: Cycle:  7   F: -445.151280732879059   dF: -1.721e-07   |Residual|: 1.043e-04   |deigs|: 2.776e-04  t[s]:    102.59
	Linear fluid (dielectric constant: 78.4, screening length: 5.74355 Bohr) occupying 0.596093 of unit cell:	Completed after 11 iterations at t[s]:    103.02
	FillingsUpdate:  mu: -0.201535939  nElectrons: 80.000000
	Linear fluid (dielectric constant: 78.4, screening length: 5.74355 Bohr) occupying 0.596009 of unit cell:	Completed after 6 iterations at t[s]:    114.37
SCF: Cycle:  8   F: -445.151280884329537   dF: -1.515e-07   |Residual|: 6.317e-05   |deigs|: 3.080e-04  t[s]:    114.61
	Linear fluid (dielectric constant: 78.4, screening length: 5.74355 Bohr) occupying 0.596095 of unit cell:	Completed after 6 iterations at t[s]:    114.90
	FillingsUpdate:  mu: -0.201551467  nElectrons: 80.000000
	Linear fluid (dielectric constant: 78.4, screening length: 5.74355 Bohr) occupying 0.596001 of unit cell:	Completed after 10 iterations at t[s]:    126.08
SCF: Cycle:  9   F: -445.151280884464256   dF: -1.347e-10   |Residual|: 4.410e-05   |deigs|: 2.817e-04  t[s]:    126.32
	Linear fluid (dielectric constant: 78.4, screening length: 5.74355 Bohr) occupying 0.596028 of unit cell:	Completed after 10 iterations at t[s]:    126.73
	FillingsUpdate:  mu: -0.201544938  nElectrons: 80.000000
	Linear fluid (dielectric constant: 78.4, screening length: 5.74355 Bohr) occupying 0.595994 of unit cell:	Completed after 10 iterations at t[s]:    138.98
SCF: Cycle: 10   F: -445.151280846557654   dF: +3.791e-08   |Residual|: 6.124e-05   |deigs|: 2.333e-04  t[s]:    139.22
	Linear fluid (dielectric constant: 78.4, screening length: 5.74355 Bohr) occupying 0.596010 of unit cell:	Completed after 10 iterations at t[s]:    139.63
	FillingsUpdate:  mu: -0.201563904  nElectrons: 80.000000
	Linear fluid (dielectric constant: 78.4, screening length: 5.74355 Bohr) occupying 0.595996 of unit cell:	Completed after 5 iterations at t[s]:    150.10
SCF: Cycle: 11   F: -445.151280931736267   dF: -8.518e-08   |Residual|: 2.045e-05   |deigs|: 5.462e-05  t[s]:    150.34
	Linear fluid (dielectric constant: 78.4, screening length: 5.74355 Bohr) occupying 0.596005 of unit cell:	Completed after 5 iterations at t[s]:    150.62
	FillingsUpdate:  mu: -0.201549804  nElectrons: 80.000000
	Linear fluid (dielectric constant: 78.4, screening length: 5.74355 Bohr) occupying 0.595994 of unit cell:	Completed after 10 iterations at t[s]:    160.24
SCF: Cycle: 12   F: -445.151280891576619   dF: +4.016e-08   |Residual|: 4.030e-05   |deigs|: 2.063e-05  t[s]:    160.47
	Linear fluid (dielectric constant: 78.4, screening length: 5.74355 Bohr) occupying 0.595999 of unit cell:	Completed after 9 iterations at t[s]:    160.83
	FillingsUpdate:  mu: -0.201573049  nElectrons: 80.000000
	Linear fluid (dielectric constant: 78.4, screening length: 5.74355 Bohr) occupying 0.595997 of unit cell:	Completed after 9 iterations at t[s]:    170.98
SCF: Cycle: 13   F: -445.151280913702010   dF: -2.213e-08   |Residual|: 2.762e-05   |deigs|: 2.733e-05  t[s]:    171.22
	Linear fluid (dielectric constant: 78.4, screening length: 5.74355 Bohr) occupying 0.595998 of unit cell:	Completed after 10 iterations at t[s]:    171.62
	FillingsUpdate:  mu: -0.201561933  nElectrons: 80.000000
	Linear fluid (dielectric constant: 78.4, screening length: 5.74355 Bohr) occupying 0.595996 of unit cell:	Completed after 0 iterations at t[s]:    181.20
SCF: Cycle: 14   F: -445.151280936750425   dF: -2.305e-08   |Residual|: 8.988e-06   |deigs|: 1.271e-05  t[s]:    181.44
	Linear fluid (dielectric constant: 78.4, screening length: 5.74355 Bohr) occupying 0.595999 of unit cell:	Completed after 2 iterations at t[s]:    181.65
	FillingsUpdate:  mu: -0.201562010  nElectrons: 80.000000
	Linear fluid (dielectric constant: 78.4, screening length: 5.74355 Bohr) occupying 0.595996 of unit cell:	Completed after 6 iterations at t[s]:    190.85
SCF: Cycle: 15   F: -445.151280928995675   dF: +7.755e-09   |Residual|: 1.893e-05   |deigs|: 5.330e-06  t[s]:    191.09
	Linear fluid (dielectric constant: 78.4, screening length: 5.74355 Bohr) occupying 0.595996 of unit cell:	Completed after 6 iterations at t[s]:    191.40
	FillingsUpdate:  mu: -0.201551161  nElectrons: 80.000000
	Linear fluid (dielectric constant: 78.4, screening length: 5.74355 Bohr) occupying 0.595995 of unit cell:	Completed after 8 iterations at t[s]:    202.02
SCF: Cycle: 16   F: -445.151280922746309   dF: +6.249e-09   |Residual|: 2.350e-05   |deigs|: 1.437e-05  t[s]:    202.29
	Linear fluid (dielectric constant: 78.4, screening length: 5.74355 Bohr) occupying 0.595996 of unit cell:	Completed after 10 iterations at t[s]:    202.67
	FillingsUpdate:  mu: -0.201564016  nElectrons: 80.000000
	Linear fluid (dielectric constant: 78.4, screening length: 5.74355 Bohr) occupying 0.595996 of unit cell:	Completed after 0 iterations at t[s]:    211.92
SCF: Cycle: 17   F: -445.151280937473473   dF: -1.473e-08   |Residual|: 2.319e-06   |deigs|: 1.267e-05  t[s]:    212.15
	Linear fluid (dielectric constant: 78.4, screening length: 5.74355 Bohr) occupying 0.595996 of unit cell:	Completed after 0 iterations at t[s]:    212.28
	FillingsUpdate:  mu: -0.201564018  nElectrons: 80.000000
	Linear fluid (dielectric constant: 78.4, screening length: 5.74355 Bohr) occupying 0.595996 of unit cell:	Completed after 0 iterations at t[s]:    219.00
SCF: Cycle: 18   F: -445.151280937552826   dF: -7.935e-11   |Residual|: 2.316e-06   |deigs|: 2.330e-06  t[s]:    219.24
	Linear fluid (dielectric constant: 78.4, screening length: 5.74355 Bohr) occupying 0.595996 of unit cell:	Completed after 0 iterations at t[s]:    219.37
	FillingsUpdate:  mu: -0.201564019  nElectrons: 80.000000
	Linear fluid (dielectric constant: 78.4, screening length: 5.74355 Bohr) occupying 0.595996 of unit cell:	Completed after 0 iterations at t[s]:    227.74
SCF: Cycle: 19   F: -445.151280937483364   dF: +6.946e-11   |Residual|: 2.333e-06   |deigs|: 1.273e-06  t[s]:    227.99
	Linear fluid (dielectric constant: 78.4, screening length: 5.74355 Bohr) occupying 0.595996 of unit cell:	Completed after 0 iterations at t[s]:    228.11
	FillingsUpdate:  mu: -0.201564019  nElectrons: 80.000000
	Linear fluid (dielectric constant: 78.4, screening length: 5.74355 Bohr) occupying 0.595996 of unit cell:	Completed after 0 iterations at t[s]:    236.05
SCF: Cycle: 20   F: -445.151280937466538   dF: +1.683e-11   |Residual|: 2.347e-06   |deigs|: 1.069e-06  t[s]:    236.29
	Linear fluid (dielectric constant: 78.4, screening length: 5.74355 Bohr) occupying 0.595996 of unit cell:	Completed after 0 iterations at t[s]:    236.42
	FillingsUpdate:  mu: -0.201564018  nElectrons: 80.000000
	Linear fluid (dielectric constant: 78.4, screening length: 5.74355 Bohr) occupying 0.595996 of unit cell:	Completed after 0 iterations at t[s]:    244.21
SCF: Cycle: 21   F: -445.151280937492345   dF: -2.581e-11   |Residual|: 2.361e-06   |deigs|: 8.851e-07  t[s]:    244.44
	Linear fluid (dielectric constant: 78.4, screening length: 5.74355 Bohr) occupying 0.595996 of unit cell:	Completed after 0 iterations at t[s]:    244.56
	FillingsUpdate:  mu: -0.201564017  nElectrons: 80.000000
	Linear fluid (dielectric constant: 78.4, screening length: 5.74355 Bohr) occupying 0.595996 of unit cell:	Completed after 0 iterations at t[s]:    252.44
SCF: Cycle: 22   F: -445.151280937459205   dF: +3.314e-11   |Residual|: 2.409e-06   |deigs|: 9.852e-07  t[s]:    252.68
	Linear fluid (dielectric constant: 78.4, screening length: 5.74355 Bohr) occupying 0.595996 of unit cell:	Completed after 0 iterations at t[s]:    252.80
	FillingsUpdate:  mu: -0.201564020  nElectrons: 80.000000
	Linear fluid (dielectric constant: 78.4, screening length: 5.74355 Bohr) occupying 0.595996 of unit cell:	Completed after 0 iterations at t[s]:    260.37
SCF: Cycle: 23   F: -445.151280937677427   dF: -2.182e-10   |Residual|: 2.298e-06   |deigs|: 7.484e-07  t[s]:    260.61
	Linear fluid (dielectric constant: 78.4, screening length: 5.74355 Bohr) occupying 0.595996 of unit cell:	Completed after 0 iterations at t[s]:    260.74
	FillingsUpdate:  mu: -0.201564016  nElectrons: 80.000000
	Linear fluid (dielectric constant: 78.4, screening length: 5.74355 Bohr) occupying 0.595996 of unit cell:	Completed after 0 iterations at t[s]:    267.68
SCF: Cycle: 24   F: -445.151280937420552   dF: +2.569e-10   |Residual|: 2.454e-06   |deigs|: 1.001e-06  t[s]:    267.92
	Linear fluid (dielectric constant: 78.4, screening length: 5.74355 Bohr) occupying 0.595995 of unit cell:	Completed after 0 iterations at t[s]:    268.05
	FillingsUpdate:  mu: -0.201564020  nElectrons: 80.000000
	Linear fluid (dielectric constant: 78.4, screening length: 5.74355 Bohr) occupying 0.595996 of unit cell:	Completed after 0 iterations at t[s]:    275.22
SCF: Cycle: 25   F: -445.151280937414924   dF: +5.627e-12   |Residual|: 2.286e-06   |deigs|: 1.070e-06  t[s]:    275.47
	Linear fluid (dielectric constant: 78.4, screening length: 5.74355 Bohr) occupying 0.595996 of unit cell:	Completed after 0 iterations at t[s]:    275.59
	FillingsUpdate:  mu: -0.201564018  nElectrons: 80.000000
	Linear fluid (dielectric constant: 78.4, screening length: 5.74355 Bohr) occupying 0.595996 of unit cell:	Completed after 0 iterations at t[s]:    283.86
SCF: Cycle: 26   F: -445.151280937353249   dF: +6.168e-11   |Residual|: 2.323e-06   |deigs|: 8.496e-07  t[s]:    284.10
	Linear fluid (dielectric constant: 78.4, screening length: 5.74355 Bohr) occupying 0.595997 of unit cell:	Completed after 0 iterations at t[s]:    284.23
	FillingsUpdate:  mu: -0.201564023  nElectrons: 80.000000
	Linear fluid (dielectric constant: 78.4, screening length: 5.74355 Bohr) occupying 0.595996 of unit cell:	Completed after 0 iterations at t[s]:    292.63
SCF: Cycle: 27   F: -445.151280937415891   dF: -6.264e-11   |Residual|: 1.734e-06   |deigs|: 2.287e-06  t[s]:    292.87
	Linear fluid (dielectric constant: 78.4, screening length: 5.74355 Bohr) occupying 0.595996 of unit cell:	Completed after 0 iterations at t[s]:    293.00
	FillingsUpdate:  mu: -0.201564021  nElectrons: 80.000000
	Linear fluid (dielectric constant: 78.4, screening length: 5.74355 Bohr) occupying 0.595996 of unit cell:	Completed after 2 iterations at t[s]:    302.00
SCF: Cycle: 28   F: -445.151280937150545   dF: +2.653e-10   |Residual|: 1.115e-06   |deigs|: 1.068e-06  t[s]:    302.24
	Linear fluid (dielectric constant: 78.4, screening length: 5.74355 Bohr) occupying 0.595996 of unit cell:	Completed after 0 iterations at t[s]:    302.37
	FillingsUpdate:  mu: -0.201549074  nElectrons: 80.000000
	Linear fluid (dielectric constant: 78.4, screening length: 5.74355 Bohr) occupying 0.595994 of unit cell:	Completed after 11 iterations at t[s]:    314.54
SCF: Cycle: 29   F: -445.151280513583004   dF: +4.236e-07   |Residual|: 1.322e-04   |deigs|: 4.302e-05  t[s]:    314.78
	Linear fluid (dielectric constant: 78.4, screening length: 5.74355 Bohr) occupying 0.595996 of unit cell:	Completed after 12 iterations at t[s]:    315.23
	FillingsUpdate:  mu: -0.201553769  nElectrons: 80.000000
	Linear fluid (dielectric constant: 78.4, screening length: 5.74355 Bohr) occupying 0.595995 of unit cell:	Completed after 2 iterations at t[s]:    322.36
SCF: Cycle: 30   F: -445.151280936438752   dF: -4.229e-07   |Residual|: 8.534e-06   |deigs|: 4.956e-05  t[s]:    322.60
	Linear fluid (dielectric constant: 78.4, screening length: 5.74355 Bohr) occupying 0.595996 of unit cell:	Completed after 2 iterations at t[s]:    322.82
	FillingsUpdate:  mu: -0.201566673  nElectrons: 80.000000
	Linear fluid (dielectric constant: 78.4, screening length: 5.74355 Bohr) occupying 0.595997 of unit cell:	Completed after 10 iterations at t[s]:    329.53
SCF: Cycle: 31   F: -445.151280859641247   dF: +7.680e-08   |Residual|: 5.373e-05   |deigs|: 1.729e-05  t[s]:    329.77
	Linear fluid (dielectric constant: 78.4, screening length: 5.74355 Bohr) occupying 0.595996 of unit cell:	Completed after 10 iterations at t[s]:    330.18
	FillingsUpdate:  mu: -0.201549030  nElectrons: 80.000000
	Linear fluid (dielectric constant: 78.4, screening length: 5.74355 Bohr) occupying 0.595995 of unit cell:	Completed after 6 iterations at t[s]:    338.23
SCF: Cycle: 32   F: -445.151280935341788   dF: -7.570e-08   |Residual|: 1.152e-05   |deigs|: 1.817e-05  t[s]:    338.47
	Linear fluid (dielectric constant: 78.4, screening length: 5.74355 Bohr) occupying 0.595996 of unit cell:	Completed after 3 iterations at t[s]:    338.69
	FillingsUpdate:  mu: -0.201574779  nElectrons: 80.000000
	Linear fluid (dielectric constant: 78.4, screening length: 5.74355 Bohr) occupying 0.595998 of unit cell:	Completed after 9 iterations at t[s]:    346.60
SCF: Cycle: 33   F: -445.151280884721473   dF: +5.062e-08   |Residual|: 4.652e-05   |deigs|: 2.552e-05  t[s]:    346.83
	Linear fluid (dielectric constant: 78.4, screening length: 5.74355 Bohr) occupying 0.595996 of unit cell:	Completed after 9 iterations at t[s]:    347.20
	FillingsUpdate:  mu: -0.201549602  nElectrons: 80.000000
	Linear fluid (dielectric constant: 78.4, screening length: 5.74355 Bohr) occupying 0.595995 of unit cell:	Completed after 9 iterations at t[s]:    355.45
SCF: Cycle: 34   F: -445.151280929201846   dF: -4.448e-08   |Residual|: 1.886e-05   |deigs|: 2.525e-05  t[s]:    355.68
	Linear fluid (dielectric constant: 78.4, screening length: 5.74355 Bohr) occupying 0.595996 of unit cell:	Completed after 6 iterations at t[s]:    355.98
	FillingsUpdate:  mu: -0.201566991  nElectrons: 80.000000
	Linear fluid (dielectric constant: 78.4, screening length: 5.74355 Bohr) occupying 0.595996 of unit cell:	Completed after 2 iterations at t[s]:    363.51
SCF: Cycle: 35   F: -445.151280936517537   dF: -7.316e-09   |Residual|: 9.874e-06   |deigs|: 1.750e-05  t[s]:    363.76
	Linear fluid (dielectric constant: 78.4, screening length: 5.74355 Bohr) occupying 0.595996 of unit cell:	Completed after 2 iterations at t[s]:    363.96
	FillingsUpdate:  mu: -0.201569402  nElectrons: 80.000000
	Linear fluid (dielectric constant: 78.4, screening length: 5.74355 Bohr) occupying 0.595997 of unit cell:	Completed after 9 iterations at t[s]:    372.73
SCF: Cycle: 36   F: -445.151280897997083   dF: +3.852e-08   |Residual|: 3.698e-05   |deigs|: 4.777e-06  t[s]:    372.97
	Linear fluid (dielectric constant: 78.4, screening length: 5.74355 Bohr) occupying 0.595997 of unit cell:	Completed after 8 iterations at t[s]:    373.32
	FillingsUpdate:  mu: -0.201545448  nElectrons: 80.000000
	Linear fluid (dielectric constant: 78.4, screening length: 5.74355 Bohr) occupying 0.595994 of unit cell:	Completed after 10 iterations at t[s]:    381.86
SCF: Cycle: 37   F: -445.151280846848238   dF: +5.115e-08   |Residual|: 5.984e-05   |deigs|: 2.383e-05  t[s]:    382.10
	Linear fluid (dielectric constant: 78.4, screening length: 5.74355 Bohr) occupying 0.595996 of unit cell:	Completed after 10 iterations at t[s]:    382.50
	FillingsUpdate:  mu: -0.201546188  nElectrons: 80.000000
	Linear fluid (dielectric constant: 78.4, screening length: 5.74355 Bohr) occupying 0.595994 of unit cell:	Completed after 10 iterations at t[s]:    390.52
SCF: Cycle: 38   F: -445.151280770759968   dF: +7.609e-08   |Residual|: 7.773e-05   |deigs|: 2.411e-06  t[s]:    390.77
	Linear fluid (dielectric constant: 78.4, screening length: 5.74355 Bohr) occupying 0.595996 of unit cell:	Completed after 10 iterations at t[s]:    391.17
	FillingsUpdate:  mu: -0.201554796  nElectrons: 80.000000
	Linear fluid (dielectric constant: 78.4, screening length: 5.74355 Bohr) occupying 0.595995 of unit cell:	Completed after 10 iterations at t[s]:    398.66
SCF: Cycle: 39   F: -445.151280921816181   dF: -1.511e-07   |Residual|: 2.132e-05   |deigs|: 9.089e-06  t[s]:    398.90
	Linear fluid (dielectric constant: 78.4, screening length: 5.74355 Bohr) occupying 0.595997 of unit cell:	Completed after 8 iterations at t[s]:    399.27
	FillingsUpdate:  mu: -0.201556497  nElectrons: 80.000000
	Linear fluid (dielectric constant: 78.4, screening length: 5.74355 Bohr) occupying 0.595995 of unit cell:	Completed after 6 iterations at t[s]:    406.07
SCF: Cycle: 40   F: -445.151280928884489   dF: -7.068e-09   |Residual|: 1.683e-05   |deigs|: 1.993e-06  t[s]:    406.30
	Linear fluid (dielectric constant: 78.4, screening length: 5.74355 Bohr) occupying 0.595996 of unit cell:	Completed after 6 iterations at t[s]:    406.61
	FillingsUpdate:  mu: -0.201569359  nElectrons: 80.000000
	Linear fluid (dielectric constant: 78.4, screening length: 5.74355 Bohr) occupying 0.595997 of unit cell:	Completed after 5 iterations at t[s]:    415.11
SCF: Cycle: 41   F: -445.151280935128682   dF: -6.244e-09   |Residual|: 8.858e-06   |deigs|: 1.245e-05  t[s]:    415.35
SCF: Converged (|Delta E|<1.000000e-08 for 2 iters).


# Ionic positions in lattice coordinates:
ion Pt   0.333333333333333  -0.333333333333333  -0.237854954839658 1
ion Pt  -0.333333333333333   0.333333333333333  -0.118499180814196 1
ion Pt   0.000000000000000   0.000000000000000   0.000000000000000 1
ion Pt   0.333333333333333  -0.333333333333333   0.118499180814196 1
ion Pt  -0.333333333333333   0.333333333333333   0.237854954839658 1


# Forces in Lattice coordinates:
force Pt   0.000000000000000   0.000000000000000   0.014010190039286 1
force Pt   0.000000000000000  -0.000000000000000   0.009585642780796 1
force Pt   0.000000000000000   0.000000000000000   0.000000000000000 1
force Pt  -0.000000000000000  -0.000000000000000  -0.009585642781705 1
force Pt   0.000000000000000  -0.000000000000000  -0.014010190038377 1

# Energy components:
   A_diel =       -0.0014134633191773
   Eewald =     4702.8455519658509729
       EH =     5102.4387107085667594
     Eloc =   -10327.2029174292838434
      Enl =       -5.2798125001003484
      Exc =     -141.5578008122340066
 Exc_core =       81.2082896729549475
       KE =      142.4549763961494193
  MuShift =       -0.0000000000014338
-------------------------------------
     Etot =     -445.0944154614167587
       TS =        0.0568654737119446
-------------------------------------
        F =     -445.1512809351286819

IonicMinimize: Iter:   0  F: -445.151280935128682  |grad|_K:  1.722e-04  t[s]:    416.55

#--- Lowdin population analysis ---
# oxidation-state Pt +0.008 +0.012 +0.015 +0.012 +0.008

	FillingsUpdate:  mu: -0.201569359  nElectrons: 80.000000
	Linear fluid (dielectric constant: 78.4, screening length: 5.74355 Bohr) occupying 0.596010 of unit cell:	Completed after 7 iterations at t[s]:    420.02

-------- Electronic minimization -----------
Will mix electronic density at each iteration.
	FillingsUpdate:  mu: -0.201569359  nElectrons: 80.000000
	Linear fluid (dielectric constant: 78.4, screening length: 5.74355 Bohr) occupying 0.596010 of unit cell:	Completed after 0 iterations at t[s]:    421.44
	FillingsUpdate:  mu: -0.201623031  nElectrons: 80.000000
	Linear fluid (dielectric constant: 78.4, screening length: 5.74355 Bohr) occupying 0.596018 of unit cell:	Completed after 11 iterations at t[s]:    430.65
SCF: Cycle:  0   F: -445.151279849653349   dF: +1.204e-06   |Residual|: 1.907e-04   |deigs|: 2.905e-07  t[s]:    430.88
	Linear fluid (dielectric constant: 78.4, screening length: 5.74355 Bohr) occupying 0.595987 of unit cell:	Completed after 12 iterations at t[s]:    431.33
	FillingsUpdate:  mu: -0.201577403  nElectrons: 80.000000
	Linear fluid (dielectric constant: 78.4, screening length: 5.74355 Bohr) occupying 0.596007 of unit cell:	Completed after 13 iterations at t[s]:    439.60
SCF: Cycle:  1   F: -445.151275021165475   dF: +4.828e-06   |Residual|: 6.063e-04   |deigs|: 5.686e-05  t[s]:    439.84
	Linear fluid (dielectric constant: 78.4, screening length: 5.74355 Bohr) occupying 0.595992 of unit cell:	Completed after 13 iterations at t[s]:    440.30
	FillingsUpdate:  mu: -0.201595327  nElectrons: 80.000000
	Linear fluid (dielectric constant: 78.4, screening length: 5.74355 Bohr) occupying 0.596009 of unit cell:	Completed after 11 iterations at t[s]:    448.10
SCF: Cycle:  2   F: -445.151281050297996   dF: -6.029e-06   |Residual|: 6.386e-05   |deigs|: 3.488e-05  t[s]:    448.36
	Linear fluid (dielectric constant: 78.4, screening length: 5.74355 Bohr) occupying 0.595989 of unit cell:	Completed after 10 iterations at t[s]:    448.75
	FillingsUpdate:  mu: -0.201585339  nElectrons: 80.000000
	Linear fluid (dielectric constant: 78.4, screening length: 5.74355 Bohr) occupying 0.596008 of unit cell:	Completed after 10 iterations at t[s]:    455.11
SCF: Cycle:  3   F: -445.151281099393032   dF: -4.910e-08   |Residual|: 8.608e-05   |deigs|: 1.115e-05  t[s]:    455.35
	Linear fluid (dielectric constant: 78.4, screening length: 5.74355 Bohr) occupying 0.595988 of unit cell:	Completed after 9 iterations at t[s]:    455.71
	FillingsUpdate:  mu: -0.201581214  nElectrons: 80.000000
	Linear fluid (dielectric constant: 78.4, screening length: 5.74355 Bohr) occupying 0.596007 of unit cell:	Completed after 9 iterations at t[s]:    464.40
SCF: Cycle:  4   F: -445.151281129370773   dF: -2.998e-08   |Residual|: 3.117e-05   |deigs|: 5.476e-06  t[s]:    464.63
	Linear fluid (dielectric constant: 78.4, screening length: 5.74355 Bohr) occupying 0.595989 of unit cell:	Completed after 10 iterations at t[s]:    465.03
	FillingsUpdate:  mu: -0.201574741  nElectrons: 80.000000
	Linear fluid (dielectric constant: 78.4, screening length: 5.74355 Bohr) occupying 0.596007 of unit cell:	Completed after 6 iterations at t[s]:    473.61
SCF: Cycle:  5   F: -445.151281125139519   dF: +4.231e-09   |Residual|: 3.636e-05   |deigs|: 7.167e-06  t[s]:    473.85
	Linear fluid (dielectric constant: 78.4, screening length: 5.74355 Bohr) occupying 0.595992 of unit cell:	Completed after 5 iterations at t[s]:    474.12
	FillingsUpdate:  mu: -0.201589840  nElectrons: 80.000000
	Linear fluid (dielectric constant: 78.4, screening length: 5.74355 Bohr) occupying 0.596009 of unit cell:	Completed after 11 iterations at t[s]:    485.85
SCF: Cycle:  6   F: -445.151281045249561   dF: +7.989e-08   |Residual|: 6.096e-05   |deigs|: 1.569e-05  t[s]:    486.09
	Linear fluid (dielectric constant: 78.4, screening length: 5.74355 Bohr) occupying 0.595992 of unit cell:	Completed after 10 iterations at t[s]:    486.49
	FillingsUpdate:  mu: -0.201569521  nElectrons: 80.000000
	Linear fluid (dielectric constant: 78.4, screening length: 5.74355 Bohr) occupying 0.596007 of unit cell:	Completed after 6 iterations at t[s]:    493.78
SCF: Cycle:  7   F: -445.151281146342740   dF: -1.011e-07   |Residual|: 1.411e-05   |deigs|: 1.941e-05  t[s]:    494.02
	Linear fluid (dielectric constant: 78.4, screening length: 5.74355 Bohr) occupying 0.595995 of unit cell:	Completed after 5 iterations at t[s]:    494.31
	FillingsUpdate:  mu: -0.201553931  nElectrons: 80.000000
	Linear fluid (dielectric constant: 78.4, screening length: 5.74355 Bohr) occupying 0.596005 of unit cell:	Completed after 6 iterations at t[s]:    502.00
SCF: Cycle:  8   F: -445.151281140694834   dF: +5.648e-09   |Residual|: 2.073e-05   |deigs|: 1.488e-05  t[s]:    502.27
	Linear fluid (dielectric constant: 78.4, screening length: 5.74355 Bohr) occupying 0.595996 of unit cell:	Completed after 5 iterations at t[s]:    502.54
	FillingsUpdate:  mu: -0.201583113  nElectrons: 80.000000
	Linear fluid (dielectric constant: 78.4, screening length: 5.74355 Bohr) occupying 0.596009 of unit cell:	Completed after 9 iterations at t[s]:    511.89
SCF: Cycle:  9   F: -445.151281101039899   dF: +3.965e-08   |Residual|: 3.858e-05   |deigs|: 2.789e-05  t[s]:    512.13
	Linear fluid (dielectric constant: 78.4, screening length: 5.74355 Bohr) occupying 0.596002 of unit cell:	Completed after 10 iterations at t[s]:    512.55
	FillingsUpdate:  mu: -0.201560781  nElectrons: 80.000000
	Linear fluid (dielectric constant: 78.4, screening length: 5.74355 Bohr) occupying 0.596007 of unit cell:	Completed after 6 iterations at t[s]:    520.02
SCF: Cycle: 10   F: -445.151281147802251   dF: -4.676e-08   |Residual|: 1.053e-05   |deigs|: 2.156e-05  t[s]:    520.26
	Linear fluid (dielectric constant: 78.4, screening length: 5.74355 Bohr) occupying 0.596003 of unit cell:	Completed after 3 iterations at t[s]:    520.49
	FillingsUpdate:  mu: -0.201541897  nElectrons: 80.000000
	Linear fluid (dielectric constant: 78.4, screening length: 5.74355 Bohr) occupying 0.596004 of unit cell:	Completed after 10 iterations at t[s]:    528.65
SCF: Cycle: 11   F: -445.151281070902826   dF: +7.690e-08   |Residual|: 5.027e-05   |deigs|: 1.861e-05  t[s]:    528.89
	Linear fluid (dielectric constant: 78.4, screening length: 5.74355 Bohr) occupying 0.596004 of unit cell:	Completed after 10 iterations at t[s]:    529.27
	FillingsUpdate:  mu: -0.201564382  nElectrons: 80.000000
	Linear fluid (dielectric constant: 78.4, screening length: 5.74355 Bohr) occupying 0.596007 of unit cell:	Completed after 6 iterations at t[s]:    537.28
SCF: Cycle: 12   F: -445.151281142761150   dF: -7.186e-08   |Residual|: 2.165e-05   |deigs|: 2.158e-05  t[s]:    537.52
	Linear fluid (dielectric constant: 78.4, screening length: 5.74355 Bohr) occupying 0.596006 of unit cell:	Completed after 5 iterations at t[s]:    537.79
	FillingsUpdate:  mu: -0.201551799  nElectrons: 80.000000
	Linear fluid (dielectric constant: 78.4, screening length: 5.74355 Bohr) occupying 0.596006 of unit cell:	Completed after 0 iterations at t[s]:    544.73
SCF: Cycle: 13   F: -445.151281149927229   dF: -7.166e-09   |Residual|: 3.783e-06   |deigs|: 1.303e-05  t[s]:    544.98
	Linear fluid (dielectric constant: 78.4, screening length: 5.74355 Bohr) occupying 0.596006 of unit cell:	Completed after 0 iterations at t[s]:    545.12
	FillingsUpdate:  mu: -0.201551803  nElectrons: 80.000000
	Linear fluid (dielectric constant: 78.4, screening length: 5.74355 Bohr) occupying 0.596006 of unit cell:	Completed after 0 iterations at t[s]:    552.82
SCF: Cycle: 14   F: -445.151281149598788   dF: +3.284e-10   |Residual|: 3.850e-06   |deigs|: 2.565e-06  t[s]:    553.06
	Linear fluid (dielectric constant: 78.4, screening length: 5.74355 Bohr) occupying 0.596006 of unit cell:	Completed after 0 iterations at t[s]:    553.19
	FillingsUpdate:  mu: -0.201551808  nElectrons: 80.000000
	Linear fluid (dielectric constant: 78.4, screening length: 5.74355 Bohr) occupying 0.596006 of unit cell:	Completed after 0 iterations at t[s]:    562.54
SCF: Cycle: 15   F: -445.151281149770682   dF: -1.719e-10   |Residual|: 4.016e-06   |deigs|: 4.282e-06  t[s]:    562.78
	Linear fluid (dielectric constant: 78.4, screening length: 5.74355 Bohr) occupying 0.596006 of unit cell:	Completed after 0 iterations at t[s]:    562.91
	FillingsUpdate:  mu: -0.201551811  nElectrons: 80.000000
	Linear fluid (dielectric constant: 78.4, screening length: 5.74355 Bohr) occupying 0.596005 of unit cell:	Completed after 0 iterations at t[s]:    571.70
SCF: Cycle: 16   F: -445.151281149778015   dF: -7.333e-12   |Residual|: 4.280e-06   |deigs|: 5.772e-06  t[s]:    571.94
SCF: Converged (|Delta E|<1.000000e-08 for 2 iters).


# Ionic positions in lattice coordinates:
ion Pt   0.333333333333333  -0.333333333333333  -0.237844144507838 1
ion Pt  -0.333333333333333   0.333333333333333  -0.118491784484889 1
ion Pt   0.000000000000000   0.000000000000000   0.000000000000000 1
ion Pt   0.333333333333333  -0.333333333333333   0.118491784484889 1
ion Pt  -0.333333333333333   0.333333333333333   0.237844144507838 1


# Forces in Lattice coordinates:
force Pt   0.000000000000000   0.000000000000000   0.007038799533414 1
force Pt   0.000000000000000   0.000000000000000   0.002778237947278 1
force Pt   0.000000000000000  -0.000000000000000  -0.000000000000000 1
force Pt  -0.000000000000000  -0.000000000000000  -0.002778237947278 1
force Pt   0.000000000000000  -0.000000000000000  -0.007038799533414 1

# Energy components:
   A_diel =       -0.0014133643260921
   Eewald =     4703.0438503357299851
       EH =     5102.6320380941315307
     Eloc =   -10327.5946072025726608
      Enl =       -5.2797708447927274
      Exc =     -141.5578933430107043
 Exc_core =       81.2082897167908868
       KE =      142.4550888911238360
  MuShift =       -0.0000000000014338
-------------------------------------
     Etot =     -445.0944177169284899
       TS =        0.0568634328495263
-------------------------------------
        F =     -445.1512811497780149

IonicMinimize: Iter:   1  F: -445.151281149778015  |grad|_K:  7.675e-05  alpha:  1.000e+00  linmin: -9.750e-01  t[s]:    573.14
IonicMinimize: Converged (|grad|_K<1.000000e-04).

#--- Lowdin population analysis ---
# oxidation-state Pt +0.008 +0.012 +0.015 +0.012 +0.008

End date and time: Mon Mar 11 16:09:32 2019  (Duration: 0-0:09:33.96)
Done!
