
*************** JDFTx 1.4.2  ***************

Start date and time: Mon Jul  1 12:45:13 2019
Executable jdftx with command-line: -i totalE.in
Running on hosts (process indices):  dhcp-ccc-7755.eduroam.cornell.edu (0-3)
Divided in process groups (process indices):  0 (0)  1 (1)  2 (2)  3 (3)
Resource initialization completed at t[s]:      0.00
Run totals: 4 processes, 12 threads, 0 GPUs


Input parsed successfully to the following command list (including defaults):

basis kpoint-dependent
coords-type Lattice
core-overlap-check vector
coulomb-interaction Periodic
davidson-band-ratio 1.1
dump Ionic State
dump-name Pt.$VAR
elec-cutoff 20 100
elec-eigen-algo Davidson
elec-ex-corr gga-PBEsol
elec-smearing Fermi 0.01
electronic-minimize  \
	dirUpdateScheme      FletcherReeves \
	linminMethod         DirUpdateRecommended \
	nIterations          100 \
	history              15 \
	knormThreshold       0 \
	energyDiffThreshold  1e-08 \
	nEnergyDiff          2 \
	alphaTstart          1 \
	alphaTmin            1e-10 \
	updateTestStepSize   yes \
	alphaTreduceFactor   0.1 \
	alphaTincreaseFactor 3 \
	nAlphaAdjustMax      3 \
	wolfeEnergy          0.0001 \
	wolfeGradient        0.9 \
	fdTest               no
electronic-scf  \
	nIterations	50 \
	energyDiffThreshold	1e-08 \
	residualThreshold	1e-07 \
	mixFraction	0.5 \
	qMetric	0.8 \
	history	10 \
	nEigSteps	2 \
	eigDiffThreshold	1e-08 \
	mixedVariable	Density \
	qKerker	0.8 \
	qKappa	-1 \
	verbose	no \
	mixFractionMag	1.5
exchange-regularization WignerSeitzTruncated
fluid None
fluid-ex-corr lda-TF lda-PZ
fluid-gummel-loop 10 1.000000e-05
fluid-minimize  \
	dirUpdateScheme      PolakRibiere \
	linminMethod         DirUpdateRecommended \
	nIterations          100 \
	history              15 \
	knormThreshold       0 \
	energyDiffThreshold  0 \
	nEnergyDiff          2 \
	alphaTstart          1 \
	alphaTmin            1e-10 \
	updateTestStepSize   yes \
	alphaTreduceFactor   0.1 \
	alphaTincreaseFactor 3 \
	nAlphaAdjustMax      3 \
	wolfeEnergy          0.0001 \
	wolfeGradient        0.9 \
	fdTest               no
fluid-solvent H2O 55.338 ScalarEOS \
	epsBulk 78.4 \
	pMol 0.92466 \
	epsInf 1.77 \
	Pvap 1.06736e-10 \
	sigmaBulk 4.62e-05 \
	Rvdw 2.61727 \
	Res 1.42
forces-output-coords Positions
ion Pt   0.000000000000000   0.000000000000000   0.000000000000000 1
ion-species GBRV/$ID_pbesol.uspp
ion-width 0
ionic-minimize  \
	dirUpdateScheme      L-BFGS \
	linminMethod         DirUpdateRecommended \
	nIterations          0 \
	history              15 \
	knormThreshold       0.0001 \
	energyDiffThreshold  1e-06 \
	nEnergyDiff          2 \
	alphaTstart          1 \
	alphaTmin            1e-10 \
	updateTestStepSize   yes \
	alphaTreduceFactor   0.1 \
	alphaTincreaseFactor 3 \
	nAlphaAdjustMax      3 \
	wolfeEnergy          0.0001 \
	wolfeGradient        0.9 \
	fdTest               no
kpoint   0.000000000000   0.000000000000   0.000000000000  1.00000000000000
kpoint-folding 12 12 12 
latt-move-scale 1 1 1
latt-scale 1 1 1 
lattice  \
	   0.000000000000000    3.705000000000000    3.705000000000000  \
	   3.705000000000000    0.000000000000000    3.705000000000000  \
	   3.705000000000000    3.705000000000000    0.000000000000000 
lattice-minimize  \
	dirUpdateScheme      L-BFGS \
	linminMethod         DirUpdateRecommended \
	nIterations          10 \
	history              15 \
	knormThreshold       0 \
	energyDiffThreshold  1e-06 \
	nEnergyDiff          2 \
	alphaTstart          1 \
	alphaTmin            1e-10 \
	updateTestStepSize   yes \
	alphaTreduceFactor   0.1 \
	alphaTincreaseFactor 3 \
	nAlphaAdjustMax      3 \
	wolfeEnergy          0.0001 \
	wolfeGradient        0.9 \
	fdTest               no
lcao-params -1 1e-06 0.01
pcm-variant GLSSA13
spintype no-spin
subspace-rotation-factor 1 yes
symmetries automatic
symmetry-threshold 0.0001



---------- Setting up symmetries ----------

Found 48 point-group symmetries of the bravais lattice
Found 48 space-group symmetries with basis
Applied RMS atom displacement 0 bohrs to make symmetries exact.

---------- Initializing the Grid ----------
R = 
[          0      3.705      3.705  ]
[      3.705          0      3.705  ]
[      3.705      3.705          0  ]
unit cell volume = 101.717
G =
[  -0.847933   0.847933   0.847933  ]
[   0.847933  -0.847933   0.847933  ]
[   0.847933   0.847933  -0.847933  ]
Minimum fftbox size, Smin = [  24  24  24  ]
Chosen fftbox size, S = [  24  24  24  ]

---------- Initializing tighter grid for wavefunction operations ----------
R = 
[          0      3.705      3.705  ]
[      3.705          0      3.705  ]
[      3.705      3.705          0  ]
unit cell volume = 101.717
G =
[  -0.847933   0.847933   0.847933  ]
[   0.847933  -0.847933   0.847933  ]
[   0.847933   0.847933  -0.847933  ]
Minimum fftbox size, Smin = [  24  24  24  ]
Chosen fftbox size, S = [  24  24  24  ]
Disabling tighter grid as its sample count matches original.

---------- Exchange Correlation functional ----------
Initalized PBEsol GGA exchange.
Initalized PBEsol GGA correlation.

---------- Setting up pseudopotentials ----------
Width of ionic core gaussian charges (only for fluid interactions / plotting) set to 0

Reading pseudopotential file '/Users/juanmendezvalderrama/Documents/JDFTX/build/pseudopotentials/GBRV/pt_pbesol.uspp':
  Title: Pt.  Created by USPP 7.3.6 on 22-9-15
  Reference state energy: -104.899005.  16 valence electrons in orbitals:
    |510>  occupation: 6  eigenvalue: -2.158847
    |520>  occupation: 9.5  eigenvalue: -0.336311
    |600>  occupation: 0  eigenvalue: -0.320324
    |610>  occupation: 0  eigenvalue: -0.119800
  lMax: 2  lLocal: 3  QijEcut: 5.5
  6 projectors sampled on a log grid with 745 points:
    l: 0  eig: -0.320324  rCut: 2.45
    l: 0  eig: 1.500000  rCut: 2.45
    l: 1  eig: -2.158847  rCut: 1.6
    l: 1  eig: -0.119800  rCut: 1.6
    l: 2  eig: -0.500000  rCut: 1.6
    l: 2  eig: -0.336311  rCut: 1.6
  Partial core density with radius 1.1
  Transforming core density to a uniform radial grid of dG=0.02 with 1693 points.
  Transforming local potential to a uniform radial grid of dG=0.02 with 1693 points.
  Transforming nonlocal projectors to a uniform radial grid of dG=0.02 with 432 points.
  Transforming density augmentations to a uniform radial grid of dG=0.02 with 1693 points.
  Transforming atomic orbitals to a uniform radial grid of dG=0.02 with 432 points.
  Core radius for overlap checks: 2.45 bohrs.

Initialized 1 species with 1 total atoms.

Folded 1 k-points by 12x12x12 to 1728 k-points.

---------- Setting up k-points, bands, fillings ----------
Reduced to 72 k-points under symmetry. 
Computing the number of bands and number of electrons
Calculating initial fillings.
nElectrons:  16.000000   nBands: 12   nStates: 72

----- Setting up reduced wavefunction bases (one per k-point) -----
average nbasis = 434.744 , ideal nbasis = 434.544

---------- Setting up ewald sum ----------
Optimum gaussian width for ewald sums = 1.888820 bohr.
Real space sum over 2197 unit cells with max indices [  6  6  6  ]
Reciprocal space sum over 2197 terms with max indices [  6  6  6  ]

---------- Allocating electronic variables ----------
Initializing wave functions:  linear combination of atomic orbitals
Pt pseudo-atom occupations:   s ( 0 )  p ( 6 0 )  d ( 10 )
	FillingsUpdate:  mu: +0.758631312  nElectrons: 16.000000
LCAOMinimize: Iter:   0  F: -88.9741198569078620  |grad|_K:  3.720e-03  alpha:  1.000e+00
	FillingsUpdate:  mu: +0.824474036  nElectrons: 16.000000
LCAOMinimize: Iter:   1  F: -89.0278211727145532  |grad|_K:  3.846e-05  alpha:  5.986e-01  linmin: -2.676e-01  cgtest:  7.736e-01  t[s]:      1.01
LCAOMinimize: Encountered beta<0, resetting CG.
	FillingsUpdate:  mu: +0.825118909  nElectrons: 16.000000
LCAOMinimize: Iter:   2  F: -89.0278271835683199  |grad|_K:  7.835e-06  alpha:  6.679e-01  linmin:  7.466e-04  cgtest: -6.744e-04  t[s]:      1.19
	FillingsUpdate:  mu: +0.825048495  nElectrons: 16.000000
LCAOMinimize: Iter:   3  F: -89.0278275050652326  |grad|_K:  1.508e-07  alpha:  8.612e-01  linmin: -4.803e-04  cgtest:  9.301e-03  t[s]:      1.38
	FillingsUpdate:  mu: +0.825048403  nElectrons: 16.000000
LCAOMinimize: Iter:   4  F: -89.0278275051897197  |grad|_K:  7.381e-09  alpha:  9.228e-01  linmin: -3.095e-01  cgtest:  8.714e-01  t[s]:      1.57
LCAOMinimize: Encountered beta<0, resetting CG.
LCAOMinimize: Converged (|Delta F|<1.000000e-06 for 2 iters).


---- Citations for features of the code used in this run ----

   Software package:
      R. Sundararaman, K. Letchworth-Weaver, K.A. Schwarz, D. Gunceler, Y. Ozhabes and T.A. Arias, 'JDFTx: software for joint density-functional theory', SoftwareX 6, 278 (2017)

   gga-PBEsol exchange-correlation functional:
      J.P. Perdew et al., Phys. Rev. Lett. 100, 136406 (2008)

   Pseudopotentials:
      KF Garrity, JW Bennett, KM Rabe and D Vanderbilt, Comput. Mater. Sci. 81, 446 (2014)

This list may not be complete. Please suggest additional citations or
report any other bugs at https://github.com/shankar1729/jdftx/issues

Initialization completed successfully at t[s]:      1.60


--------- Lattice Minimization ---------
Minimization of dimension 1 over strains spanned by:
[  0.57735  0  0  ]
[  0  0.57735  0  ]
[  0  0  0.57735  ]

	FillingsUpdate:  mu: +0.825048403  nElectrons: 16.000000

-------- Electronic minimization -----------
Will mix electronic density at each iteration.
	FillingsUpdate:  mu: +0.825048403  nElectrons: 16.000000
	FillingsUpdate:  mu: +0.823649592  nElectrons: 16.000000
SCF: Cycle:  0   F: -89.040648622843079   dF: -1.282e-02   |Residual|: 2.473e-02   |deigs|: 4.721e-02  t[s]:      2.14
	FillingsUpdate:  mu: +0.826920826  nElectrons: 16.000000
SCF: Cycle:  1   F: -89.040948975106673   dF: -3.004e-04   |Residual|: 9.567e-03   |deigs|: 1.322e-02  t[s]:      2.54
	FillingsUpdate:  mu: +0.827196306  nElectrons: 16.000000
SCF: Cycle:  2   F: -89.040954668029485   dF: -5.693e-06   |Residual|: 3.269e-03   |deigs|: 3.510e-03  t[s]:      2.93
	FillingsUpdate:  mu: +0.826889684  nElectrons: 16.000000
SCF: Cycle:  3   F: -89.040955415300289   dF: -7.473e-07   |Residual|: 3.392e-04   |deigs|: 8.071e-04  t[s]:      3.25
	FillingsUpdate:  mu: +0.826940111  nElectrons: 16.000000
SCF: Cycle:  4   F: -89.040955449214138   dF: -3.391e-08   |Residual|: 9.894e-05   |deigs|: 4.361e-04  t[s]:      3.63
	FillingsUpdate:  mu: +0.826923183  nElectrons: 16.000000
SCF: Cycle:  5   F: -89.040955466542812   dF: -1.733e-08   |Residual|: 9.884e-06   |deigs|: 5.147e-04  t[s]:      4.02
	FillingsUpdate:  mu: +0.826923145  nElectrons: 16.000000
SCF: Cycle:  6   F: -89.040955467496772   dF: -9.540e-10   |Residual|: 3.031e-06   |deigs|: 2.141e-04  t[s]:      4.36
	FillingsUpdate:  mu: +0.826923405  nElectrons: 16.000000
SCF: Cycle:  7   F: -89.040955467751843   dF: -2.551e-10   |Residual|: 1.313e-06   |deigs|: 1.200e-04  t[s]:      4.76
SCF: Converged (|Delta E|<1.000000e-08 for 2 iters).

Calculating stress tensor...  done!

R = 
[          0      3.705      3.705  ]
[      3.705          0      3.705  ]
[      3.705      3.705          0  ]
unit cell volume = 101.717

# Strain Tensor:
[            0            0            0  ]
[            0            0            0  ]
[            0            0            0  ]

# Stress Tensor:
[  9.92678e-06            0            0  ]
[            0  9.92678e-06            0  ]
[            0            0  9.92678e-06  ]


# Ionic positions in lattice coordinates:
ion Pt   0.000000000000000   0.000000000000000   0.000000000000000 1


# Forces in Lattice coordinates:
force Pt   0.000000000000000  -0.000000000000000  -0.000000000000000 1

# Energy components:
   Eewald =      -79.1986970967030004
       EH =       12.2318028382825617
     Eloc =      -37.4327384728086940
      Enl =       -1.0598518341733554
      Exc =      -28.3387478094490035
 Exc_core =       16.2416580713067766
       KE =       28.5261816176068912
-------------------------------------
     Etot =      -89.0303926859378265
       TS =        0.0105627818140153
-------------------------------------
        F =      -89.0409554677518429


Dumping 'Pt.fillings' ... done
Dumping 'Pt.wfns' ... done
Dumping 'Pt.ionpos' ... done
Dumping 'Pt.lattice' ... done
Dumping 'Pt.eigenvals' ... done
LatticeMinimize: Iter:   0  F: -89.040955467751843  |grad|_K:  3.338e-04  t[s]:      5.37

#--- Lowdin population analysis ---
# oxidation-state Pt +0.008

	FillingsUpdate:  mu: +0.826923405  nElectrons: 16.000000

-------- Electronic minimization -----------
Will mix electronic density at each iteration.
	FillingsUpdate:  mu: +0.826923405  nElectrons: 16.000000
	FillingsUpdate:  mu: +0.827041828  nElectrons: 16.000000
SCF: Cycle:  0   F: -89.040955573102380   dF: -1.123e-08   |Residual|: 2.671e-05   |deigs|: 5.792e-05  t[s]:      5.92
	FillingsUpdate:  mu: +0.827046899  nElectrons: 16.000000
SCF: Cycle:  1   F: -89.040955573907027   dF: -8.046e-10   |Residual|: 3.944e-06   |deigs|: 3.248e-05  t[s]:      6.24
	FillingsUpdate:  mu: +0.827046467  nElectrons: 16.000000
SCF: Cycle:  2   F: -89.040955573937978   dF: -3.095e-11   |Residual|: 1.899e-06   |deigs|: 1.334e-05  t[s]:      6.61
SCF: Converged (|Delta E|<1.000000e-08 for 2 iters).

Calculating stress tensor...  done!

R = 
[          0    3.70486    3.70486  ]
[    3.70486          0    3.70486  ]
[    3.70486    3.70486          0  ]
unit cell volume = 101.706

# Strain Tensor:
[ -3.67787e-05            0            0  ]
[            0 -3.67787e-05            0  ]
[            0            0 -3.67787e-05  ]

# Stress Tensor:
[   8.9178e-06            0            0  ]
[            0   8.9178e-06            0  ]
[            0            0   8.9178e-06  ]


# Ionic positions in lattice coordinates:
ion Pt   0.000000000000000   0.000000000000000   0.000000000000000 1


# Forces in Lattice coordinates:
force Pt   0.000000000000000  -0.000000000000000   0.000000000000000 1

# Energy components:
   Eewald =      -79.2016100307915849
       EH =       12.2305459715137239
     Eloc =      -37.4286410084812360
      Enl =       -1.0598202508510983
      Exc =      -28.3388153092533805
 Exc_core =       16.2416580770832866
       KE =       28.5262886204141850
-------------------------------------
     Etot =      -89.0303939303661025
       TS =        0.0105616435718939
-------------------------------------
        F =      -89.0409555739379925


Dumping 'Pt.fillings' ... done
Dumping 'Pt.wfns' ... done
Dumping 'Pt.ionpos' ... done
Dumping 'Pt.lattice' ... done
Dumping 'Pt.eigenvals' ... done
LatticeMinimize: Iter:   1  F: -89.040955573937993  |grad|_K:  2.998e-04  alpha:  1.000e+00  linmin: -1.000e+00  t[s]:      7.22

#--- Lowdin population analysis ---
# oxidation-state Pt +0.008

	FillingsUpdate:  mu: +0.827046467  nElectrons: 16.000000

-------- Electronic minimization -----------
Will mix electronic density at each iteration.
	FillingsUpdate:  mu: +0.827046467  nElectrons: 16.000000
	FillingsUpdate:  mu: +0.828050511  nElectrons: 16.000000
SCF: Cycle:  0   F: -89.040955952737278   dF: -8.345e-07   |Residual|: 2.239e-04   |deigs|: 7.171e-06  t[s]:      7.84
	FillingsUpdate:  mu: +0.828092481  nElectrons: 16.000000
SCF: Cycle:  1   F: -89.040955994857669   dF: -4.212e-08   |Residual|: 3.516e-05   |deigs|: 4.156e-05  t[s]:      8.12
	FillingsUpdate:  mu: +0.828093053  nElectrons: 16.000000
SCF: Cycle:  2   F: -89.040955995687852   dF: -8.302e-10   |Residual|: 1.481e-05   |deigs|: 1.309e-06  t[s]:      8.42
	FillingsUpdate:  mu: +0.828092304  nElectrons: 16.000000
SCF: Cycle:  3   F: -89.040955995815963   dF: -1.281e-10   |Residual|: 2.299e-06   |deigs|: 5.873e-07  t[s]:      8.76
SCF: Converged (|Delta E|<1.000000e-08 for 2 iters).

Calculating stress tensor...  done!

R = 
[          0     3.7037     3.7037  ]
[     3.7037          0     3.7037  ]
[     3.7037     3.7037          0  ]
unit cell volume = 101.61

# Strain Tensor:
[ -0.000350094            0            0  ]
[            0 -0.000350094            0  ]
[            0            0 -0.000350094  ]

# Stress Tensor:
[  -1.1147e-08            0            0  ]
[            0  -1.1147e-08            0  ]
[            0            0  -1.1147e-08  ]


# Ionic positions in lattice coordinates:
ion Pt   0.000000000000000   0.000000000000000   0.000000000000000 1


# Forces in Lattice coordinates:
force Pt   0.000000000000000   0.000000000000000  -0.000000000000000 1

# Energy components:
   Eewald =      -79.2264338326953350
       EH =       12.2198887971440904
     Eloc =      -37.3938146021903535
      Enl =       -1.0595440900225426
      Exc =      -28.3394008286225123
 Exc_core =       16.2416581265092645
       KE =       28.5272423828272217
-------------------------------------
     Etot =      -89.0304040470501405
       TS =        0.0105519487658155
-------------------------------------
        F =      -89.0409559958159491


Dumping 'Pt.fillings' ... done
Dumping 'Pt.wfns' ... done
Dumping 'Pt.ionpos' ... done
Dumping 'Pt.lattice' ... done
Dumping 'Pt.eigenvals' ... done
LatticeMinimize: Iter:   2  F: -89.040955995815949  |grad|_K:  3.744e-07  alpha:  1.000e+00  linmin:  1.000e+00  t[s]:      9.36
LatticeMinimize: Converged (|Delta F|<1.000000e-06 for 2 iters).

#--- Lowdin population analysis ---
# oxidation-state Pt +0.008

End date and time: Mon Jul  1 12:45:23 2019  (Duration: 0-0:00:09.47)
Done!
