CRYSTAL
PRIMVEC
  2.772709   0.000000   0.000000
  0.000000   2.772709   0.000000
  0.000000   0.000000  19.606015
PRIMCOORD
5 1
78   0.000000   0.000000  -3.921203
78   1.386354   1.386354  -1.960602
78   0.000000   0.000000   0.000000
78   1.386354   1.386354   1.960602
78   0.000000   0.000000   3.921203
BEGIN_BLOCK_DATAGRID_3D
 n
 BEGIN_DATAGRID_3D_n
  25 25 169
    0.000000   0.000000   0.000000
    2.772709   0.000000   0.000000
    0.000000   2.772709   0.000000
    0.000000   0.000000  19.606015
  -1.665736e+00 -1.096860e+00 1.089739e-01 1.008335e+00 1.161182e+00 8.435224e-01 4.935009e-01 2.777034e-01 1.629969e-01 1.024432e-01 7.363437e-02 6.017823e-02 5.652182e-02 6.017823e-02 7.363437e-02 1.024432e-01 1.629969e-01 2.777034e-01 4.935009e-01 8.435224e-01 1.161182e+00 1.008335e+00 1.089739e-01 -1.096860e+00 -1.665736e+00
  -1.096860e+00 -6.174737e-01 3.828789e-01 1.089146e+00 1.142699e+00 8.085258e-01 4.718681e-01 2.675264e-01 1.579341e-01 9.994868e-02 7.221536e-02 5.918230e-02 5.561282e-02 5.918230e-02 7.221536e-02 9.994868e-02 1.579341e-01 2.675264e-01 4.718681e-01 8.085258e-01 1.142699e+00 1.089146e+00 3.828789e-01 -6.174737e-01 -1.096860e+00
  1.089739e-01 3.828789e-01 9.177144e-01 1.201444e+00 1.054943e+00 7.064643e-01 4.131539e-01 2.396002e-01 1.439110e-01 9.299529e-02 6.823626e-02 5.634098e-02 5.303242e-02 5.634098e-02 6.823626e-02 9.299529e-02 1.439110e-01 2.396002e-01 4.131539e-01 7.064643e-01 1.054943e+00 1.201444e+00 9.177144e-01 3.828789e-01 1.089739e-01
  1.008335e+00 1.089146e+00 1.201444e+00 1.132698e+00 8.651079e-01 5.577095e-01 3.334693e-01 2.007775e-01 1.238462e-01 8.315069e-02 6.219125e-02 5.218397e-02 4.901531e-02 5.218397e-02 6.219125e-02 8.315069e-02 1.238462e-01 2.007775e-01 3.334693e-01 5.577095e-01 8.651079e-01 1.132698e+00 1.201444e+00 1.089146e+00 1.008335e+00
  1.161182e+00 1.142699e+00 1.054943e+00 8.651079e-01 6.196451e-01 4.017523e-01 2.525962e-01 1.583217e-01 1.021980e-01 7.178178e-02 5.524919e-02 4.701218e-02 4.432908e-02 4.701218e-02 5.524919e-02 7.178178e-02 1.021980e-01 1.583217e-01 2.525962e-01 4.017523e-01 6.196451e-01 8.651079e-01 1.054943e+00 1.142699e+00 1.161182e+00
  8.435224e-01 8.085258e-01 7.064643e-01 5.577095e-01 4.017523e-01 2.742920e-01 1.819158e-01 1.195976e-01 8.221284e-02 6.046385e-02 4.812173e-02 4.147326e-02 3.943914e-02 4.147326e-02 4.812173e-02 6.046385e-02 8.221284e-02 1.195976e-01 1.819158e-01 2.742920e-01 4.017523e-01 5.577095e-01 7.064643e-01 8.085258e-01 8.435224e-01
  4.935009e-01 4.718681e-01 4.131539e-01 3.334693e-01 2.525962e-01 1.819158e-01 1.268004e-01 8.928622e-02 6.529679e-02 5.041538e-02 4.127958e-02 3.628309e-02 3.464365e-02 3.628309e-02 4.127958e-02 5.041538e-02 6.529679e-02 8.928622e-02 1.268004e-01 1.819158e-01 2.525962e-01 3.334693e-01 4.131539e-01 4.718681e-01 4.935009e-01
  2.777034e-01 2.675264e-01 2.396002e-01 2.007775e-01 1.583217e-01 1.195976e-01 8.928622e-02 6.727580e-02 5.212085e-02 4.187399e-02 3.528750e-02 3.159518e-02 3.042728e-02 3.159518e-02 3.528750e-02 4.187399e-02 5.212085e-02 6.727580e-02 8.928622e-02 1.195976e-01 1.583217e-01 2.007775e-01 2.396002e-01 2.675264e-01 2.777034e-01
  1.629969e-01 1.579341e-01 1.439110e-01 1.238462e-01 1.021980e-01 8.221284e-02 6.529679e-02 5.212085e-02 4.218634e-02 3.507519e-02 3.041642e-02 2.782584e-02 2.698473e-02 2.782584e-02 3.041642e-02 3.507519e-02 4.218634e-02 5.212085e-02 6.529679e-02 8.221284e-02 1.021980e-01 1.238462e-01 1.439110e-01 1.579341e-01 1.629969e-01
  1.024432e-01 9.994868e-02 9.299529e-02 8.315069e-02 7.178178e-02 6.046385e-02 5.041538e-02 4.187399e-02 3.507519e-02 3.009837e-02 2.674972e-02 2.481319e-02 2.421022e-02 2.481319e-02 2.674972e-02 3.009837e-02 3.507519e-02 4.187399e-02 5.041538e-02 6.046385e-02 7.178178e-02 8.315069e-02 9.299529e-02 9.994868e-02 1.024432e-01
  7.363437e-02 7.221536e-02 6.823626e-02 6.219125e-02 5.524919e-02 4.812173e-02 4.127958e-02 3.528750e-02 3.041642e-02 2.674972e-02 2.413103e-02 2.269754e-02 2.222388e-02 2.269754e-02 2.413103e-02 2.674972e-02 3.041642e-02 3.528750e-02 4.127958e-02 4.812173e-02 5.524919e-02 6.219125e-02 6.823626e-02 7.221536e-02 7.363437e-02
  6.017823e-02 5.918230e-02 5.634098e-02 5.218397e-02 4.701218e-02 4.147326e-02 3.628309e-02 3.159518e-02 2.782584e-02 2.481319e-02 2.269754e-02 2.149197e-02 2.109402e-02 2.149197e-02 2.269754e-02 2.481319e-02 2.782584e-02 3.159518e-02 3.628309e-02 4.147326e-02 4.701218e-02 5.218397e-02 5.634098e-02 5.918230e-02 6.017823e-02
  5.652182e-02 5.561282e-02 5.303242e-02 4.901531e-02 4.432908e-02 3.943914e-02 3.464365e-02 3.042728e-02 2.698473e-02 2.421022e-02 2.222388e-02 2.109402e-02 2.070606e-02 2.109402e-02 2.222388e-02 2.421022e-02 2.698473e-02 3.042728e-02 3.464365e-02 3.943914e-02 4.432908e-02 4.901531e-02 5.303242e-02 5.561282e-02 5.652182e-02
  6.017823e-02 5.918230e-02 5.634098e-02 5.218397e-02 4.701218e-02 4.147326e-02 3.628309e-02 3.159518e-02 2.782584e-02 2.481319e-02 2.269754e-02 2.149197e-02 2.109402e-02 2.149197e-02 2.269754e-02 2.481319e-02 2.782584e-02 3.159518e-02 3.628309e-02 4.147326e-02 4.701218e-02 5.218397e-02 5.634098e-02 5.918230e-02 6.017823e-02
  7.363437e-02 7.221536e-02 6.823626e-02 6.219125e-02 5.524919e-02 4.812173e-02 4.127958e-02 3.528750e-02 3.041642e-02 2.674972e-02 2.413103e-02 2.269754e-02 2.222388e-02 2.269754e-02 2.413103e-02 2.674972e-02 3.041642e-02 3.528750e-02 4.127958e-02 4.812173e-02 5.524919e-02 6.219125e-02 6.823626e-02 7.221536e-02 7.363437e-02
  1.024432e-01 9.994868e-02 9.299529e-02 8.315069e-02 7.178178e-02 6.046385e-02 5.041538e-02 4.187399e-02 3.507519e-02 3.009837e-02 2.674972e-02 2.481319e-02 2.421022e-02 2.481319e-02 2.674972e-02 3.009837e-02 3.507519e-02 4.187399e-02 5.041538e-02 6.046385e-02 7.178178e-02 8.315069e-02 9.299529e-02 9.994868e-02 1.024432e-01
  1.629969e-01 1.579341e-01 1.439110e-01 1.238462e-01 1.021980e-01 8.221284e-02 6.529679e-02 5.212085e-02 4.218634e-02 3.507519e-02 3.041642e-02 2.782584e-02 2.698473e-02 2.782584e-02 3.041642e-02 3.507519e-02 4.218634e-02 5.212085e-02 6.529679e-02 8.221284e-02 1.021980e-01 1.238462e-01 1.439110e-01 1.579341e-01 1.629969e-01
  2.777034e-01 2.675264e-01 2.396002e-01 2.007775e-01 1.583217e-01 1.195976e-01 8.928622e-02 6.727580e-02 5.212085e-02 4.187399e-02 3.528750e-02 3.159518e-02 3.042728e-02 3.159518e-02 3.528750e-02 4.187399e-02 5.212085e-02 6.727580e-02 8.928622e-02 1.195976e-01 1.583217e-01 2.007775e-01 2.396002e-01 2.675264e-01 2.777034e-01
  4.935009e-01 4.718681e-01 4.131539e-01 3.334693e-01 2.525962e-01 1.819158e-01 1.268004e-01 8.928622e-02 6.529679e-02 5.041538e-02 4.127958e-02 3.628309e-02 3.464365e-02 3.628309e-02 4.127958e-02 5.041538e-02 6.529679e-02 8.928622e-02 1.268004e-01 1.819158e-01 2.525962e-01 3.334693e-01 4.131539e-01 4.718681e-01 4.935009e-01
  8.435224e-01 8.085258e-01 7.064643e-01 5.577095e-01 4.017523e-01 2.742920e-01 1.819158e-01 1.195976e-01 8.221284e-02 6.046385e-02 4.812173e-02 4.147326e-02 3.943914e-02 4.147326e-02 4.812173e-02 6.046385e-02 8.221284e-02 1.195976e-01 1.819158e-01 2.742920e-01 4.017523e-01 5.577095e-01 7.064643e-01 8.085258e-01 8.435224e-01
  1.161182e+00 1.142699e+00 1.054943e+00 8.651079e-01 6.196451e-01 4.017523e-01 2.525962e-01 1.583217e-01 1.021980e-01 7.178178e-02 5.524919e-02 4.701218e-02 4.432908e-02 4.701218e-02 5.524919e-02 7.178178e-02 1.021980e-01 1.583217e-01 2.525962e-01 4.017523e-01 6.196451e-01 8.651079e-01 1.054943e+00 1.142699e+00 1.161182e+00
  1.008335e+00 1.089146e+00 1.201444e+00 1.132698e+00 8.651079e-01 5.577095e-01 3.334693e-01 2.007775e-01 1.238462e-01 8.315069e-02 6.219125e-02 5.218397e-02 4.901531e-02 5.218397e-02 6.219125e-02 8.315069e-02 1.238462e-01 2.007775e-01 3.334693e-01 5.577095e-01 8.651079e-01 1.132698e+00 1.201444e+00 1.089146e+00 1.008335e+00
  1.089739e-01 3.828789e-01 9.177144e-01 1.201444e+00 1.054943e+00 7.064643e-01 4.131539e-01 2.396002e-01 1.439110e-01 9.299529e-02 6.823626e-02 5.634098e-02 5.303242e-02 5.634098e-02 6.823626e-02 9.299529e-02 1.439110e-01 2.396002e-01 4.131539e-01 7.064643e-01 1.054943e+00 1.201444e+00 9.177144e-01 3.828789e-01 1.089739e-01
  -1.096860e+00 -6.174737e-01 3.828789e-01 1.089146e+00 1.142699e+00 8.085258e-01 4.718681e-01 2.675264e-01 1.579341e-01 9.994868e-02 7.221536e-02 5.918230e-02 5.561282e-02 5.918230e-02 7.221536e-02 9.994868e-02 1.579341e-01 2.675264e-01 4.718681e-01 8.085258e-01 1.142699e+00 1.089146e+00 3.828789e-01 -6.174737e-01 -1.096860e+00
  -1.665736e+00 -1.096860e+00 1.089739e-01 1.008335e+00 1.161182e+00 8.435224e-01 4.935009e-01 2.777034e-01 1.629969e-01 1.024432e-01 7.363437e-02 6.017823e-02 5.652182e-02 6.017823e-02 7.363437e-02 1.024432e-01 1.629969e-01 2.777034e-01 4.935009e-01 8.435224e-01 1.161182e+00 1.008335e+00 1.089739e-01 -1.096860e+00 -1.665736e+00
  -1.085541e+00 -6.102225e-01 3.813176e-01 1.080674e+00 1.133143e+00 8.017730e-01 4.683428e-01 2.659332e-01 1.572600e-01 9.973102e-02 7.218614e-02 5.924174e-02 5.568827e-02 5.924174e-02 7.218614e-02 9.973102e-02 1.572600e-01 2.659332e-01 4.683428e-01 8.017730e-01 1.133143e+00 1.080674e+00 3.813176e-01 -6.102225e-01 -1.085541e+00
  -6.102225e-01 -2.126304e-01 6.016613e-01 1.137173e+00 1.108951e+00 7.676106e-01 4.480243e-01 2.563492e-01 1.524460e-01 9.736680e-02 7.083340e-02 5.829422e-02 5.481227e-02 5.829422e-02 7.083340e-02 9.736680e-02 1.524460e-01 2.563492e-01 4.480243e-01 7.676106e-01 1.108951e+00 1.137173e+00 6.016613e-01 -2.126304e-01 -6.102225e-01
  3.813176e-01 6.016613e-01 1.017398e+00 1.198544e+00 1.011741e+00 6.693512e-01 3.929949e-01 2.299850e-01 1.391346e-01 9.076217e-02 6.701060e-02 5.556678e-02 5.232853e-02 5.556678e-02 6.701060e-02 9.076217e-02 1.391346e-01 2.299850e-01 3.929949e-01 6.693512e-01 1.011741e+00 1.198544e+00 1.017398e+00 6.016613e-01 3.813176e-01
  1.080674e+00 1.137173e+00 1.198544e+00 1.093369e+00 8.215690e-01 5.284485e-01 3.183696e-01 1.932104e-01 1.201012e-01 8.138086e-02 6.123062e-02 5.157487e-02 4.847133e-02 5.157487e-02 6.123062e-02 8.138086e-02 1.201012e-01 1.932104e-01 3.183696e-01 5.284485e-01 8.215690e-01 1.093369e+00 1.198544e+00 1.137173e+00 1.080674e+00
  1.133143e+00 1.108951e+00 1.011741e+00 8.215690e-01 5.867037e-01 3.823002e-01 2.423216e-01 1.528748e-01 9.958763e-02 7.048693e-02 5.457627e-02 4.657157e-02 4.398473e-02 4.657157e-02 5.457627e-02 7.048693e-02 9.958763e-02 1.528748e-01 2.423216e-01 3.823002e-01 5.867037e-01 8.215690e-01 1.011741e+00 1.108951e+00 1.133143e+00
  8.017730e-01 7.676106e-01 6.693512e-01 5.284485e-01 3.823002e-01 2.628069e-01 1.753102e-01 1.161540e-01 8.052448e-02 5.964617e-02 4.771900e-02 4.125302e-02 3.926752e-02 4.125302e-02 4.771900e-02 5.964617e-02 8.052448e-02 1.161540e-01 1.753102e-01 2.628069e-01 3.823002e-01 5.284485e-01 6.693512e-01 7.676106e-01 8.017730e-01
  4.683428e-01 4.480243e-01 3.929949e-01 3.183696e-01 2.423216e-01 1.753102e-01 1.230066e-01 8.730974e-02 6.432972e-02 4.997097e-02 4.108241e-02 3.622991e-02 3.463508e-02 3.622991e-02 4.108241e-02 4.997097e-02 6.432972e-02 8.730974e-02 1.230066e-01 1.753102e-01 2.423216e-01 3.183696e-01 3.929949e-01 4.480243e-01 4.683428e-01
  2.659332e-01 2.563492e-01 2.299850e-01 1.932104e-01 1.528748e-01 1.161540e-01 8.730974e-02 6.624383e-02 5.163561e-02 4.170031e-02 3.533922e-02 3.173954e-02 3.059847e-02 3.173954e-02 3.533922e-02 4.170031e-02 5.163561e-02 6.624383e-02 8.730974e-02 1.161540e-01 1.528748e-01 1.932104e-01 2.299850e-01 2.563492e-01 2.659332e-01
  1.572600e-01 1.524460e-01 1.391346e-01 1.201012e-01 9.958763e-02 8.052448e-02 6.432972e-02 5.163561e-02 4.202416e-02 3.515836e-02 3.053968e-02 2.796988e-02 2.714220e-02 2.796988e-02 3.053968e-02 3.515836e-02 4.202416e-02 5.163561e-02 6.432972e-02 8.052448e-02 9.958763e-02 1.201012e-01 1.391346e-01 1.524460e-01 1.572600e-01
  9.973102e-02 9.736680e-02 9.076217e-02 8.138086e-02 7.048693e-02 5.964617e-02 4.997097e-02 4.170031e-02 3.515836e-02 3.019699e-02 2.693019e-02 2.514411e-02 2.458238e-02 2.514411e-02 2.693019e-02 3.019699e-02 3.515836e-02 4.170031e-02 4.997097e-02 5.964617e-02 7.048693e-02 8.138086e-02 9.076217e-02 9.736680e-02 9.973102e-02
  7.218614e-02 7.083340e-02 6.701060e-02 6.123062e-02 5.457627e-02 4.771900e-02 4.108241e-02 3.533922e-02 3.053968e-02 2.693019e-02 2.456835e-02 2.318176e-02 2.272990e-02 2.318176e-02 2.456835e-02 2.693019e-02 3.053968e-02 3.533922e-02 4.108241e-02 4.771900e-02 5.457627e-02 6.123062e-02 6.701060e-02 7.083340e-02 7.218614e-02
  5.924174e-02 5.829422e-02 5.556678e-02 5.157487e-02 4.657157e-02 4.125302e-02 3.622991e-02 3.173954e-02 2.796988e-02 2.514411e-02 2.318176e-02 2.195298e-02 2.155997e-02 2.195298e-02 2.318176e-02 2.514411e-02 2.796988e-02 3.173954e-02 3.622991e-02 4.125302e-02 4.657157e-02 5.157487e-02 5.556678e-02 5.829422e-02 5.924174e-02
  5.568827e-02 5.481227e-02 5.232853e-02 4.847133e-02 4.398473e-02 3.926752e-02 3.463508e-02 3.059847e-02 2.714220e-02 2.458238e-02 2.272990e-02 2.155997e-02 2.116161e-02 2.155997e-02 2.272990e-02 2.458238e-02 2.714220e-02 3.059847e-02 3.463508e-02 3.926752e-02 4.398473e-02 4.847133e-02 5.232853e-02 5.481227e-02 5.568827e-02
  5.924174e-02 5.829422e-02 5.556678e-02 5.157487e-02 4.657157e-02 4.125302e-02 3.622991e-02 3.173954e-02 2.796988e-02 2.514411e-02 2.318176e-02 2.195298e-02 2.155997e-02 2.195298e-02 2.318176e-02 2.514411e-02 2.796988e-02 3.173954e-02 3.622991e-02 4.125302e-02 4.657157e-02 5.157487e-02 5.556678e-02 5.829422e-02 5.924174e-02
  7.218614e-02 7.083340e-02 6.701060e-02 6.123062e-02 5.457627e-02 4.771900e-02 4.108241e-02 3.533922e-02 3.053968e-02 2.693019e-02 2.456835e-02 2.318176e-02 2.272990e-02 2.318176e-02 2.456835e-02 2.693019e-02 3.053968e-02 3.533922e-02 4.108241e-02 4.771900e-02 5.457627e-02 6.123062e-02 6.701060e-02 7.083340e-02 7.218614e-02
  9.973102e-02 9.736680e-02 9.076217e-02 8.138086e-02 7.048693e-02 5.964617e-02 4.997097e-02 4.170031e-02 3.515836e-02 3.019699e-02 2.693019e-02 2.514411e-02 2.458238e-02 2.514411e-02 2.693019e-02 3.019699e-02 3.515836e-02 4.170031e-02 4.997097e-02 5.964617e-02 7.048693e-02 8.138086e-02 9.076217e-02 9.736680e-02 9.973102e-02
  1.572600e-01 1.524460e-01 1.391346e-01 1.201012e-01 9.958763e-02 8.052448e-02 6.432972e-02 5.163561e-02 4.202416e-02 3.515836e-02 3.053968e-02 2.796988e-02 2.714220e-02 2.796988e-02 3.053968e-02 3.515836e-02 4.202416e-02 5.163561e-02 6.432972e-02 8.052448e-02 9.958763e-02 1.201012e-01 1.391346e-01 1.524460e-01 1.572600e-01
  2.659332e-01 2.563492e-01 2.299850e-01 1.932104e-01 1.528748e-01 1.161540e-01 8.730974e-02 6.624383e-02 5.163561e-02 4.170031e-02 3.533922e-02 3.173954e-02 3.059847e-02 3.173954e-02 3.533922e-02 4.170031e-02 5.163561e-02 6.624383e-02 8.730974e-02 1.161540e-01 1.528748e-01 1.932104e-01 2.299850e-01 2.563492e-01 2.659332e-01
  4.683428e-01 4.480243e-01 3.929949e-01 3.183696e-01 2.423216e-01 1.753102e-01 1.230066e-01 8.730974e-02 6.432972e-02 4.997097e-02 4.108241e-02 3.622991e-02 3.463508e-02 3.622991e-02 4.108241e-02 4.997097e-02 6.432972e-02 8.730974e-02 1.230066e-01 1.753102e-01 2.423216e-01 3.183696e-01 3.929949e-01 4.480243e-01 4.683428e-01
  8.017730e-01 7.676106e-01 6.693512e-01 5.284485e-01 3.823002e-01 2.628069e-01 1.753102e-01 1.161540e-01 8.052448e-02 5.964617e-02 4.771900e-02 4.125302e-02 3.926752e-02 4.125302e-02 4.771900e-02 5.964617e-02 8.052448e-02 1.161540e-01 1.753102e-01 2.628069e-01 3.823002e-01 5.284485e-01 6.693512e-01 7.676106e-01 8.017730e-01
  1.133143e+00 1.108951e+00 1.011741e+00 8.215690e-01 5.867037e-01 3.823002e-01 2.423216e-01 1.528748e-01 9.958763e-02 7.048693e-02 5.457627e-02 4.657157e-02 4.398473e-02 4.657157e-02 5.457627e-02 7.048693e-02 9.958763e-02 1.528748e-01 2.423216e-01 3.823002e-01 5.867037e-01 8.215690e-01 1.011741e+00 1.108951e+00 1.133143e+00
  1.080674e+00 1.137173e+00 1.198544e+00 1.093369e+00 8.215690e-01 5.284485e-01 3.183696e-01 1.932104e-01 1.201012e-01 8.138086e-02 6.123062e-02 5.157487e-02 4.847133e-02 5.157487e-02 6.123062e-02 8.138086e-02 1.201012e-01 1.932104e-01 3.183696e-01 5.284485e-01 8.215690e-01 1.093369e+00 1.198544e+00 1.137173e+00 1.080674e+00
  3.813176e-01 6.016613e-01 1.017398e+00 1.198544e+00 1.011741e+00 6.693512e-01 3.929949e-01 2.299850e-01 1.391346e-01 9.076217e-02 6.701060e-02 5.556678e-02 5.232853e-02 5.556678e-02 6.701060e-02 9.076217e-02 1.391346e-01 2.299850e-01 3.929949e-01 6.693512e-01 1.011741e+00 1.198544e+00 1.017398e+00 6.016613e-01 3.813176e-01
  -6.102225e-01 -2.126304e-01 6.016613e-01 1.137173e+00 1.108951e+00 7.676106e-01 4.480243e-01 2.563492e-01 1.524460e-01 9.736680e-02 7.083340e-02 5.829422e-02 5.481227e-02 5.829422e-02 7.083340e-02 9.736680e-02 1.524460e-01 2.563492e-01 4.480243e-01 7.676106e-01 1.108951e+00 1.137173e+00 6.016613e-01 -2.126304e-01 -6.102225e-01
  -1.085541e+00 -6.102225e-01 3.813176e-01 1.080674e+00 1.133143e+00 8.017730e-01 4.683428e-01 2.659332e-01 1.572600e-01 9.973102e-02 7.218614e-02 5.924174e-02 5.568827e-02 5.924174e-02 7.218614e-02 9.973102e-02 1.572600e-01 2.659332e-01 4.683428e-01 8.017730e-01 1.133143e+00 1.080674e+00 3.813176e-01 -6.102225e-01 -1.085541e+00
  1.383650e-01 4.004753e-01 9.099695e-01 1.174576e+00 1.025761e+00 6.862477e-01 4.025008e-01 2.346132e-01 1.418318e-01 9.235872e-02 6.824255e-02 5.662833e-02 5.339357e-02 5.662833e-02 6.824255e-02 9.235872e-02 1.418318e-01 2.346132e-01 4.025008e-01 6.862477e-01 1.025761e+00 1.174576e+00 9.099695e-01 4.004753e-01 1.383650e-01
  4.004753e-01 6.128692e-01 1.011598e+00 1.179937e+00 9.917565e-01 6.556174e-01 3.856985e-01 2.265490e-01 1.377044e-01 9.034395e-02 6.704071e-02 5.580017e-02 5.261060e-02 5.580017e-02 6.704071e-02 9.034395e-02 1.377044e-01 2.265490e-01 3.856985e-01 6.556174e-01 9.917565e-01 1.179937e+00 1.011598e+00 6.128692e-01 4.004753e-01
  9.099695e-01 1.011598e+00 1.168930e+00 1.137370e+00 8.813845e-01 5.703417e-01 3.401800e-01 2.043422e-01 1.262368e-01 8.474096e-02 6.363229e-02 5.346340e-02 5.035617e-02 5.346340e-02 6.363229e-02 8.474096e-02 1.262368e-01 2.043422e-01 3.401800e-01 5.703417e-01 8.813845e-01 1.137370e+00 1.168930e+00 1.011598e+00 9.099695e-01
  1.174576e+00 1.179937e+00 1.137370e+00 9.659280e-01 7.017966e-01 4.517574e-01 2.786507e-01 1.728901e-01 1.100459e-01 7.657138e-02 5.857656e-02 4.989153e-02 4.697675e-02 4.989153e-02 5.857656e-02 7.657138e-02 1.100459e-01 1.728901e-01 2.786507e-01 4.517574e-01 7.017966e-01 9.659280e-01 1.137370e+00 1.179937e+00 1.174576e+00
  1.025761e+00 9.917565e-01 8.813845e-01 7.017966e-01 5.000037e-01 3.314700e-01 2.149639e-01 1.382375e-01 9.258071e-02 6.694644e-02 5.278631e-02 4.537005e-02 4.307532e-02 4.537005e-02 5.278631e-02 6.694644e-02 9.258071e-02 1.382375e-01 2.149639e-01 3.314700e-01 5.000037e-01 7.017966e-01 8.813845e-01 9.917565e-01 1.025761e+00
  6.862477e-01 6.556174e-01 5.703417e-01 4.517574e-01 3.314700e-01 2.323496e-01 1.575670e-01 1.069503e-01 7.595329e-02 5.744858e-02 4.658057e-02 4.067648e-02 3.881127e-02 4.067648e-02 4.658057e-02 5.744858e-02 7.595329e-02 1.069503e-01 1.575670e-01 2.323496e-01 3.314700e-01 4.517574e-01 5.703417e-01 6.556174e-01 6.862477e-01
  4.025008e-01 3.856985e-01 3.401800e-01 2.786507e-01 2.149639e-01 1.575670e-01 1.128736e-01 8.198404e-02 6.172055e-02 4.877184e-02 4.065950e-02 3.616274e-02 3.469285e-02 3.616274e-02 4.065950e-02 4.877184e-02 6.172055e-02 8.198404e-02 1.128736e-01 1.575670e-01 2.149639e-01 2.786507e-01 3.401800e-01 3.856985e-01 4.025008e-01
  2.346132e-01 2.265490e-01 2.043422e-01 1.728901e-01 1.382375e-01 1.069503e-01 8.198404e-02 6.346201e-02 5.036268e-02 4.130505e-02 3.539566e-02 3.207379e-02 3.101989e-02 3.207379e-02 3.539566e-02 4.130505e-02 5.036268e-02 6.346201e-02 8.198404e-02 1.069503e-01 1.382375e-01 1.728901e-01 2.043422e-01 2.265490e-01 2.346132e-01
  1.418318e-01 1.377044e-01 1.262368e-01 1.100459e-01 9.258071e-02 7.595329e-02 6.172055e-02 5.036268e-02 4.162737e-02 3.527732e-02 3.109757e-02 2.876632e-02 2.801131e-02 2.876632e-02 3.109757e-02 3.527732e-02 4.162737e-02 5.036268e-02 6.172055e-02 7.595329e-02 9.258071e-02 1.100459e-01 1.262368e-01 1.377044e-01 1.418318e-01
  9.235872e-02 9.034395e-02 8.474096e-02 7.657138e-02 6.694644e-02 5.744858e-02 4.877184e-02 4.130505e-02 3.527732e-02 3.084292e-02 2.783646e-02 2.608739e-02 2.554025e-02 2.608739e-02 2.783646e-02 3.084292e-02 3.527732e-02 4.130505e-02 4.877184e-02 5.744858e-02 6.694644e-02 7.657138e-02 8.474096e-02 9.034395e-02 9.235872e-02
  6.824255e-02 6.704071e-02 6.363229e-02 5.857656e-02 5.278631e-02 4.658057e-02 4.065950e-02 3.539566e-02 3.109757e-02 2.783646e-02 2.547812e-02 2.418191e-02 2.375318e-02 2.418191e-02 2.547812e-02 2.783646e-02 3.109757e-02 3.539566e-02 4.065950e-02 4.658057e-02 5.278631e-02 5.857656e-02 6.363229e-02 6.704071e-02 6.824255e-02
  5.662833e-02 5.580017e-02 5.346340e-02 4.989153e-02 4.537005e-02 4.067648e-02 3.616274e-02 3.207379e-02 2.876632e-02 2.608739e-02 2.418191e-02 2.309521e-02 2.273194e-02 2.309521e-02 2.418191e-02 2.608739e-02 2.876632e-02 3.207379e-02 3.616274e-02 4.067648e-02 4.537005e-02 4.989153e-02 5.346340e-02 5.580017e-02 5.662833e-02
  5.339357e-02 5.261060e-02 5.035617e-02 4.697675e-02 4.307532e-02 3.881127e-02 3.469285e-02 3.101989e-02 2.801131e-02 2.554025e-02 2.375318e-02 2.273194e-02 2.238063e-02 2.273194e-02 2.375318e-02 2.554025e-02 2.801131e-02 3.101989e-02 3.469285e-02 3.881127e-02 4.307532e-02 4.697675e-02 5.035617e-02 5.261060e-02 5.339357e-02
  5.662833e-02 5.580017e-02 5.346340e-02 4.989153e-02 4.537005e-02 4.067648e-02 3.616274e-02 3.207379e-02 2.876632e-02 2.608739e-02 2.418191e-02 2.309521e-02 2.273194e-02 2.309521e-02 2.418191e-02 2.608739e-02 2.876632e-02 3.207379e-02 3.616274e-02 4.067648e-02 4.537005e-02 4.989153e-02 5.346340e-02 5.580017e-02 5.662833e-02
  6.824255e-02 6.704071e-02 6.363229e-02 5.857656e-02 5.278631e-02 4.658057e-02 4.065950e-02 3.539566e-02 3.109757e-02 2.783646e-02 2.547812e-02 2.418191e-02 2.375318e-02 2.418191e-02 2.547812e-02 2.783646e-02 3.109757e-02 3.539566e-02 4.065950e-02 4.658057e-02 5.278631e-02 5.857656e-02 6.363229e-02 6.704071e-02 6.824255e-02
  9.235872e-02 9.034395e-02 8.474096e-02 7.657138e-02 6.694644e-02 5.744858e-02 4.877184e-02 4.130505e-02 3.527732e-02 3.084292e-02 2.783646e-02 2.608739e-02 2.554025e-02 2.608739e-02 2.783646e-02 3.084292e-02 3.527732e-02 4.130505e-02 4.877184e-02 5.744858e-02 6.694644e-02 7.657138e-02 8.474096e-02 9.034395e-02 9.235872e-02
  1.418318e-01 1.377044e-01 1.262368e-01 1.100459e-01 9.258071e-02 7.595329e-02 6.172055e-02 5.036268e-02 4.162737e-02 3.527732e-02 3.109757e-02 2.876632e-02 2.801131e-02 2.876632e-02 3.109757e-02 3.527732e-02 4.162737e-02 5.036268e-02 6.172055e-02 7.595329e-02 9.258071e-02 1.100459e-01 1.262368e-01 1.377044e-01 1.418318e-01
  2.346132e-01 2.265490e-01 2.043422e-01 1.728901e-01 1.382375e-01 1.069503e-01 8.198404e-02 6.346201e-02 5.036268e-02 4.130505e-02 3.539566e-02 3.207379e-02 3.101989e-02 3.207379e-02 3.539566e-02 4.130505e-02 5.036268e-02 6.346201e-02 8.198404e-02 1.069503e-01 1.382375e-01 1.728901e-01 2.043422e-01 2.265490e-01 2.346132e-01
  4.025008e-01 3.856985e-01 3.401800e-01 2.786507e-01 2.149639e-01 1.575670e-01 1.128736e-01 8.198404e-02 6.172055e-02 4.877184e-02 4.065950e-02 3.616274e-02 3.469285e-02 3.616274e-02 4.065950e-02 4.877184e-02 6.172055e-02 8.198404e-02 1.128736e-01 1.575670e-01 2.149639e-01 2.786507e-01 3.401800e-01 3.856985e-01 4.025008e-01
  6.862477e-01 6.556174e-01 5.703417e-01 4.517574e-01 3.314700e-01 2.323496e-01 1.575670e-01 1.069503e-01 7.595329e-02 5.744858e-02 4.658057e-02 4.067648e-02 3.881127e-02 4.067648e-02 4.658057e-02 5.744858e-02 7.595329e-02 1.069503e-01 1.575670e-01 2.323496e-01 3.314700e-01 4.517574e-01 5.703417e-01 6.556174e-01 6.862477e-01
  1.025761e+00 9.917565e-01 8.813845e-01 7.017966e-01 5.000037e-01 3.314700e-01 2.149639e-01 1.382375e-01 9.258071e-02 6.694644e-02 5.278631e-02 4.537005e-02 4.307532e-02 4.537005e-02 5.278631e-02 6.694644e-02 9.258071e-02 1.382375e-01 2.149639e-01 3.314700e-01 5.000037e-01 7.017966e-01 8.813845e-01 9.917565e-01 1.025761e+00
  1.174576e+00 1.179937e+00 1.137370e+00 9.659280e-01 7.017966e-01 4.517574e-01 2.786507e-01 1.728901e-01 1.100459e-01 7.657138e-02 5.857656e-02 4.989153e-02 4.697675e-02 4.989153e-02 5.857656e-02 7.657138e-02 1.100459e-01 1.728901e-01 2.786507e-01 4.517574e-01 7.017966e-01 9.659280e-01 1.137370e+00 1.179937e+00 1.174576e+00
  9.099695e-01 1.011598e+00 1.168930e+00 1.137370e+00 8.813845e-01 5.703417e-01 3.401800e-01 2.043422e-01 1.262368e-01 8.474096e-02 6.363229e-02 5.346340e-02 5.035617e-02 5.346340e-02 6.363229e-02 8.474096e-02 1.262368e-01 2.043422e-01 3.401800e-01 5.703417e-01 8.813845e-01 1.137370e+00 1.168930e+00 1.011598e+00 9.099695e-01
  4.004753e-01 6.128692e-01 1.011598e+00 1.179937e+00 9.917565e-01 6.556174e-01 3.856985e-01 2.265490e-01 1.377044e-01 9.034395e-02 6.704071e-02 5.580017e-02 5.261060e-02 5.580017e-02 6.704071e-02 9.034395e-02 1.377044e-01 2.265490e-01 3.856985e-01 6.556174e-01 9.917565e-01 1.179937e+00 1.011598e+00 6.128692e-01 4.004753e-01
  1.383650e-01 4.004753e-01 9.099695e-01 1.174576e+00 1.025761e+00 6.862477e-01 4.025008e-01 2.346132e-01 1.418318e-01 9.235872e-02 6.824255e-02 5.662833e-02 5.339357e-02 5.662833e-02 6.824255e-02 9.235872e-02 1.418318e-01 2.346132e-01 4.025008e-01 6.862477e-01 1.025761e+00 1.174576e+00 9.099695e-01 4.004753e-01 1.383650e-01
  1.040046e+00 1.105150e+00 1.184296e+00 1.092277e+00 8.240686e-01 5.295955e-01 3.181787e-01 1.933424e-01 1.208638e-01 8.243188e-02 6.254995e-02 5.301436e-02 4.998671e-02 5.301436e-02 6.254995e-02 8.243188e-02 1.208638e-01 1.933424e-01 3.181787e-01 5.295955e-01 8.240686e-01 1.092277e+00 1.184296e+00 1.105150e+00 1.040046e+00
  1.105150e+00 1.149064e+00 1.183940e+00 1.060401e+00 7.884734e-01 5.057701e-01 3.059422e-01 1.871462e-01 1.177054e-01 8.085893e-02 6.161001e-02 5.235121e-02 4.936794e-02 5.235121e-02 6.161001e-02 8.085893e-02 1.177054e-01 1.871462e-01 3.059422e-01 5.057701e-01 7.884734e-01 1.060401e+00 1.183940e+00 1.149064e+00 1.105150e+00
  1.184296e+00 1.183940e+00 1.129533e+00 9.502870e-01 6.863582e-01 4.411286e-01 2.727093e-01 1.699692e-01 1.089687e-01 7.643458e-02 5.892035e-02 5.043823e-02 4.759573e-02 5.043823e-02 5.892035e-02 7.643458e-02 1.089687e-01 1.699692e-01 2.727093e-01 4.411286e-01 6.863582e-01 9.502870e-01 1.129533e+00 1.183940e+00 1.184296e+00
  1.092277e+00 1.060401e+00 9.502870e-01 7.602595e-01 5.400829e-01 3.539407e-01 2.272547e-01 1.454018e-01 9.672173e-02 6.980047e-02 5.501839e-02 4.741790e-02 4.501583e-02 4.741790e-02 5.501839e-02 6.980047e-02 9.672173e-02 1.454018e-01 2.272547e-01 3.539407e-01 5.400829e-01 7.602595e-01 9.502870e-01 1.060401e+00 1.092277e+00
  8.240686e-01 7.884734e-01 6.863582e-01 5.400829e-01 3.888926e-01 2.667830e-01 1.783518e-01 1.188084e-01 8.303515e-02 6.215190e-02 5.023649e-02 4.378927e-02 4.180637e-02 4.378927e-02 5.023649e-02 6.215190e-02 8.303515e-02 1.188084e-01 1.783518e-01 2.667830e-01 3.888926e-01 5.400829e-01 6.863582e-01 7.884734e-01 8.240686e-01
  5.295955e-01 5.057701e-01 4.411286e-01 3.539407e-01 2.667830e-01 1.918817e-01 1.339313e-01 9.463336e-02 6.975719e-02 5.445334e-02 4.510466e-02 3.998648e-02 3.830794e-02 3.998648e-02 4.510466e-02 5.445334e-02 6.975719e-02 9.463336e-02 1.339313e-01 1.918817e-01 2.667830e-01 3.539407e-01 4.411286e-01 5.057701e-01 5.295955e-01
  3.181787e-01 3.059422e-01 2.727093e-01 2.272547e-01 1.783518e-01 1.339313e-01 9.936632e-02 7.480378e-02 5.822439e-02 4.721291e-02 4.017914e-02 3.622765e-02 3.496321e-02 3.622765e-02 4.017914e-02 4.721291e-02 5.822439e-02 7.480378e-02 9.936632e-02 1.339313e-01 1.783518e-01 2.272547e-01 2.727093e-01 3.059422e-01 3.181787e-01
  1.933424e-01 1.871462e-01 1.699692e-01 1.454018e-01 1.188084e-01 9.463336e-02 7.480378e-02 5.974911e-02 4.870960e-02 4.092601e-02 3.580179e-02 3.290795e-02 3.197023e-02 3.290795e-02 3.580179e-02 4.092601e-02 4.870960e-02 5.974911e-02 7.480378e-02 9.463336e-02 1.188084e-01 1.454018e-01 1.699692e-01 1.871462e-01 1.933424e-01
  1.208638e-01 1.177054e-01 1.089687e-01 9.672173e-02 8.303515e-02 6.975719e-02 5.822439e-02 4.870960e-02 4.128402e-02 3.582561e-02 3.212305e-02 3.004030e-02 2.938604e-02 3.004030e-02 3.212305e-02 3.582561e-02 4.128402e-02 4.870960e-02 5.822439e-02 6.975719e-02 8.303515e-02 9.672173e-02 1.089687e-01 1.177054e-01 1.208638e-01
  8.243188e-02 8.085893e-02 7.643458e-02 6.980047e-02 6.215190e-02 5.445334e-02 4.721291e-02 4.092601e-02 3.582561e-02 3.191428e-02 2.931358e-02 2.791676e-02 2.746447e-02 2.791676e-02 2.931358e-02 3.191428e-02 3.582561e-02 4.092601e-02 4.721291e-02 5.445334e-02 6.215190e-02 6.980047e-02 7.643458e-02 8.085893e-02 8.243188e-02
  6.254995e-02 6.161001e-02 5.892035e-02 5.501839e-02 5.023649e-02 4.510466e-02 4.017914e-02 3.580179e-02 3.212305e-02 2.931358e-02 2.750938e-02 2.641566e-02 2.606822e-02 2.641566e-02 2.750938e-02 2.931358e-02 3.212305e-02 3.580179e-02 4.017914e-02 4.510466e-02 5.023649e-02 5.501839e-02 5.892035e-02 6.161001e-02 6.254995e-02
  5.301436e-02 5.235121e-02 5.043823e-02 4.741790e-02 4.378927e-02 3.998648e-02 3.622765e-02 3.290795e-02 3.004030e-02 2.791676e-02 2.641566e-02 2.545967e-02 2.514378e-02 2.545967e-02 2.641566e-02 2.791676e-02 3.004030e-02 3.290795e-02 3.622765e-02 3.998648e-02 4.378927e-02 4.741790e-02 5.043823e-02 5.235121e-02 5.301436e-02
  4.998671e-02 4.936794e-02 4.759573e-02 4.501583e-02 4.180637e-02 3.830794e-02 3.496321e-02 3.197023e-02 2.938604e-02 2.746447e-02 2.606822e-02 2.514378e-02 2.483621e-02 2.514378e-02 2.606822e-02 2.746447e-02 2.938604e-02 3.197023e-02 3.496321e-02 3.830794e-02 4.180637e-02 4.501583e-02 4.759573e-02 4.936794e-02 4.998671e-02
  5.301436e-02 5.235121e-02 5.043823e-02 4.741790e-02 4.378927e-02 3.998648e-02 3.622765e-02 3.290795e-02 3.004030e-02 2.791676e-02 2.641566e-02 2.545967e-02 2.514378e-02 2.545967e-02 2.641566e-02 2.791676e-02 3.004030e-02 3.290795e-02 3.622765e-02 3.998648e-02 4.378927e-02 4.741790e-02 5.043823e-02 5.235121e-02 5.301436e-02
  6.254995e-02 6.161001e-02 5.892035e-02 5.501839e-02 5.023649e-02 4.510466e-02 4.017914e-02 3.580179e-02 3.212305e-02 2.931358e-02 2.750938e-02 2.641566e-02 2.606822e-02 2.641566e-02 2.750938e-02 2.931358e-02 3.212305e-02 3.580179e-02 4.017914e-02 4.510466e-02 5.023649e-02 5.501839e-02 5.892035e-02 6.161001e-02 6.254995e-02