
*************** JDFTx 1.4.2  ***************

Start date and time: Mon Mar 11 15:19:02 2019
Executable jdftx with command-line: -i Vacuum.in
Running on hosts (process indices):  dhcp-ccc-9638.eduroam.cornell.edu (0)
Divided in process groups (process indices):  0 (0)
Resource initialization completed at t[s]:      0.00
Run totals: 1 processes, 12 threads, 0 GPUs


Input parsed successfully to the following command list (including defaults):

basis kpoint-dependent
coords-type Lattice
core-overlap-check vector
coulomb-interaction Slab 001
coulomb-truncation-embed 0 0 0
davidson-band-ratio 1.1
dump End State IonicPositions ElecDensity
dump-name 100-Vacuum.$VAR
elec-cutoff 20 100
elec-eigen-algo Davidson
elec-ex-corr gga-PBEsol
elec-smearing Fermi 0.01
electronic-minimize  \
	dirUpdateScheme      FletcherReeves \
	linminMethod         DirUpdateRecommended \
	nIterations          100 \
	history              15 \
	knormThreshold       0 \
	energyDiffThreshold  1e-08 \
	nEnergyDiff          2 \
	alphaTstart          1 \
	alphaTmin            1e-10 \
	updateTestStepSize   yes \
	alphaTreduceFactor   0.1 \
	alphaTincreaseFactor 3 \
	nAlphaAdjustMax      3 \
	wolfeEnergy          0.0001 \
	wolfeGradient        0.9 \
	fdTest               no
electronic-scf  \
	nIterations	50 \
	energyDiffThreshold	1e-08 \
	residualThreshold	1e-07 \
	mixFraction	0.5 \
	qMetric	0.8 \
	history	10 \
	nEigSteps	2 \
	eigDiffThreshold	1e-08 \
	mixedVariable	Density \
	qKerker	0.8 \
	qKappa	-1 \
	verbose	no \
	mixFractionMag	1.5
exchange-regularization WignerSeitzTruncated
fluid None
fluid-ex-corr lda-TF lda-PZ
fluid-gummel-loop 10 1.000000e-05
fluid-minimize  \
	dirUpdateScheme      PolakRibiere \
	linminMethod         DirUpdateRecommended \
	nIterations          100 \
	history              15 \
	knormThreshold       0 \
	energyDiffThreshold  0 \
	nEnergyDiff          2 \
	alphaTstart          1 \
	alphaTmin            1e-10 \
	updateTestStepSize   yes \
	alphaTreduceFactor   0.1 \
	alphaTincreaseFactor 3 \
	nAlphaAdjustMax      3 \
	wolfeEnergy          0.0001 \
	wolfeGradient        0.9 \
	fdTest               no
fluid-solvent H2O 55.338 ScalarEOS \
	epsBulk 78.4 \
	pMol 0.92466 \
	epsInf 1.77 \
	Pvap 1.06736e-10 \
	sigmaBulk 4.62e-05 \
	Rvdw 2.61727 \
	Res 1.42
forces-output-coords Positions
ion Pt   0.000000000000000   0.000000000000000  -0.200000000000000 1
ion Pt   0.500000000000000   0.500000000000000  -0.100000000000000 1
ion Pt   0.000000000000000   0.000000000000000   0.000000000000000 1
ion Pt   0.500000000000000   0.500000000000000   0.100000000000000 1
ion Pt   0.000000000000000   0.000000000000000   0.200000000000000 1
ion-species GBRV/$ID_pbesol.uspp
ion-width 0
ionic-minimize  \
	dirUpdateScheme      L-BFGS \
	linminMethod         DirUpdateRecommended \
	nIterations          0 \
	history              15 \
	knormThreshold       0.0001 \
	energyDiffThreshold  1e-06 \
	nEnergyDiff          2 \
	alphaTstart          1 \
	alphaTmin            1e-10 \
	updateTestStepSize   yes \
	alphaTreduceFactor   0.1 \
	alphaTincreaseFactor 3 \
	nAlphaAdjustMax      3 \
	wolfeEnergy          0.0001 \
	wolfeGradient        0.9 \
	fdTest               no
kpoint   0.000000000000   0.000000000000   0.000000000000  1.00000000000000
kpoint-folding 12 12 1 
latt-move-scale 1 1 1
latt-scale 1 1 1 
lattice Tetragonal 5.23966 37.05
lattice-minimize  \
	dirUpdateScheme      L-BFGS \
	linminMethod         DirUpdateRecommended \
	nIterations          0 \
	history              15 \
	knormThreshold       0 \
	energyDiffThreshold  1e-06 \
	nEnergyDiff          2 \
	alphaTstart          1 \
	alphaTmin            1e-10 \
	updateTestStepSize   yes \
	alphaTreduceFactor   0.1 \
	alphaTincreaseFactor 3 \
	nAlphaAdjustMax      3 \
	wolfeEnergy          0.0001 \
	wolfeGradient        0.9 \
	fdTest               no
lcao-params -1 1e-06 0.01
pcm-variant GLSSA13
spintype no-spin
subspace-rotation-factor 1 yes
symmetries automatic
symmetry-threshold 0.0001



---------- Setting up symmetries ----------

Found 16 point-group symmetries of the bravais lattice
Found 16 space-group symmetries with basis
Applied RMS atom displacement 0 bohrs to make symmetries exact.

---------- Initializing the Grid ----------
R = 
[    5.23966          0          0  ]
[          0    5.23966          0  ]
[          0          0      37.05  ]
unit cell volume = 1017.17
G =
[    1.19916          0          0  ]
[          0    1.19916          0  ]
[          0          0   0.169587  ]
Minimum fftbox size, Smin = [  24  24  168  ]
Chosen fftbox size, S = [  24  24  168  ]

---------- Initializing tighter grid for wavefunction operations ----------
R = 
[    5.23966          0          0  ]
[          0    5.23966          0  ]
[          0          0      37.05  ]
unit cell volume = 1017.17
G =
[    1.19916          0          0  ]
[          0    1.19916          0  ]
[          0          0   0.169587  ]
Minimum fftbox size, Smin = [  24  24  152  ]
Chosen fftbox size, S = [  24  24  160  ]

---------- Exchange Correlation functional ----------
Initalized PBEsol GGA exchange.
Initalized PBEsol GGA correlation.

---------- Setting up pseudopotentials ----------
Width of ionic core gaussian charges (only for fluid interactions / plotting) set to 0

Reading pseudopotential file '/Users/juanmendezvalderrama/Documents/JDFTX/build/pseudopotentials/GBRV/pt_pbesol.uspp':
  Title: Pt.  Created by USPP 7.3.6 on 22-9-15
  Reference state energy: -104.899005.  16 valence electrons in orbitals:
    |510>  occupation: 6  eigenvalue: -2.158847
    |520>  occupation: 9.5  eigenvalue: -0.336311
    |600>  occupation: 0  eigenvalue: -0.320324
    |610>  occupation: 0  eigenvalue: -0.119800
  lMax: 2  lLocal: 3  QijEcut: 5.5
  6 projectors sampled on a log grid with 745 points:
    l: 0  eig: -0.320324  rCut: 2.45
    l: 0  eig: 1.500000  rCut: 2.45
    l: 1  eig: -2.158847  rCut: 1.6
    l: 1  eig: -0.119800  rCut: 1.6
    l: 2  eig: -0.500000  rCut: 1.6
    l: 2  eig: -0.336311  rCut: 1.6
  Partial core density with radius 1.1
  Transforming core density to a uniform radial grid of dG=0.02 with 1248 points.
  Transforming local potential to a uniform radial grid of dG=0.02 with 1248 points.
  Transforming nonlocal projectors to a uniform radial grid of dG=0.02 with 432 points.
  Transforming density augmentations to a uniform radial grid of dG=0.02 with 1248 points.
  Transforming atomic orbitals to a uniform radial grid of dG=0.02 with 432 points.
  Core radius for overlap checks: 2.45 bohrs.

Initialized 1 species with 5 total atoms.

Folded 1 k-points by 12x12x1 to 144 k-points.

---------- Setting up k-points, bands, fillings ----------
Reduced to 28 k-points under symmetry. 
Computing the number of bands and number of electrons
Calculating initial fillings.
nElectrons:  80.000000   nBands: 60   nStates: 28

----- Setting up reduced wavefunction bases (one per k-point) -----
average nbasis = 4346.104 , ideal nbasis = 4345.437

---------- Setting up coulomb interaction ----------
Setting up double-sized grid for truncated Coulomb potentials:
R = 
[    5.23966          0          0  ]
[          0    5.23966          0  ]
[          0          0       74.1  ]
unit cell volume = 2034.34
G =
[    1.19916          0          0  ]
[          0    1.19916          0  ]
[          0          0  0.0847933  ]
Chosen fftbox size, S = [  24  24  336  ]
Integer grid location selected as the embedding center:
   Grid: [  0  0  0  ]
   Lattice: [  0  0  0  ]
   Cartesian: [  0  0  0  ]
Constructing Wigner-Seitz cell: 6 faces (6 quadrilaterals, 0 hexagons)
Range-separation parameter for embedded mesh potentials due to point charges: 0.592447 bohrs.
Initialized slab truncation along lattice direction 001

---------- Setting up 2D ewald sum ----------
Optimum gaussian width for ewald sums = 3.125760 bohr.
Real space sums over 225 unit cells with max indices [  7  7  0  ]
Reciprocal space sums over 81 terms with max indices [  4  4  0  ]

---------- Allocating electronic variables ----------
Initializing wave functions:  linear combination of atomic orbitals
Pt pseudo-atom occupations:   s ( 0 )  p ( 6 0 )  d ( 10 )
	FillingsUpdate:  mu: -1.652357330  nElectrons: 80.000000
LCAOMinimize: Iter:   0  F: -443.0272908128321205  |grad|_K:  2.878e-02  alpha:  1.000e+00
LCAOMinimize: 	Step increased F by 1.337728e+01, reducing alpha to 1.801324e-02.
	FillingsUpdate:  mu: -1.095182429  nElectrons: 80.000000
LCAOMinimize: Iter:   1  F: -444.2390811831418205  |grad|_K:  1.408e-02  alpha:  1.801e-02  linmin: -3.215e-01  cgtest:  9.051e-01  t[s]:     16.87
LCAOMinimize: Encountered beta<0, resetting CG.
	FillingsUpdate:  mu: -0.509056350  nElectrons: 80.000000
LCAOMinimize: Iter:   2  F: -444.6012053241951776  |grad|_K:  6.523e-03  alpha:  3.637e-02  linmin:  4.650e-02  cgtest: -1.181e-01  t[s]:     21.15
LCAOMinimize: 	Predicted alpha/alphaT>3.000000, increasing alphaT to 1.091001e-01.
	FillingsUpdate:  mu: -0.179478308  nElectrons: 80.000000
LCAOMinimize: Iter:   3  F: -444.9432931604522423  |grad|_K:  2.799e-03  alpha:  1.684e-01  linmin:  2.511e-03  cgtest:  1.732e-01  t[s]:     26.63
	FillingsUpdate:  mu: -0.288466340  nElectrons: 80.000000
LCAOMinimize: Iter:   4  F: -445.0086805820898803  |grad|_K:  2.544e-03  alpha:  1.603e-01  linmin:  4.077e-03  cgtest: -3.530e-02  t[s]:     30.91
	FillingsUpdate:  mu: -0.197368865  nElectrons: 80.000000
LCAOMinimize: Iter:   5  F: -445.0239220065907375  |grad|_K:  1.499e-03  alpha:  5.408e-02  linmin:  4.029e-02  cgtest: -2.023e-01  t[s]:     35.16
LCAOMinimize: 	Predicted alpha/alphaT>3.000000, increasing alphaT to 1.622436e-01.
	FillingsUpdate:  mu: -0.168345021  nElectrons: 80.000000
LCAOMinimize: Iter:   6  F: -445.0500758089264650  |grad|_K:  9.902e-04  alpha:  2.666e-01  linmin:  3.369e-03  cgtest:  6.941e-01  t[s]:     40.61
LCAOMinimize: Encountered beta<0, resetting CG.
	FillingsUpdate:  mu: -0.211035837  nElectrons: 80.000000
LCAOMinimize: Iter:   7  F: -445.0519758794855534  |grad|_K:  3.704e-04  alpha:  3.505e-02  linmin: -5.229e-02  cgtest:  1.389e-01  t[s]:     44.86
LCAOMinimize: 	Predicted alpha/alphaT>3.000000, increasing alphaT to 1.051615e-01.
	FillingsUpdate:  mu: -0.213553592  nElectrons: 80.000000
LCAOMinimize: Iter:   8  F: -445.0532252618507982  |grad|_K:  1.811e-04  alpha:  1.688e-01  linmin: -4.004e-04  cgtest: -7.809e-02  t[s]:     50.36
	FillingsUpdate:  mu: -0.233109601  nElectrons: 80.000000
LCAOMinimize: Iter:   9  F: -445.0534631125400438  |grad|_K:  1.903e-04  alpha:  1.386e-01  linmin:  9.899e-04  cgtest:  1.415e-02  t[s]:     54.58
	FillingsUpdate:  mu: -0.231857816  nElectrons: 80.000000
LCAOMinimize: Iter:  10  F: -445.0535485450796500  |grad|_K:  2.795e-05  alpha:  4.558e-02  linmin:  1.311e-03  cgtest:  9.832e-02  t[s]:     58.84
LCAOMinimize: 	Predicted alpha/alphaT>3.000000, increasing alphaT to 1.367433e-01.
	FillingsUpdate:  mu: -0.232600905  nElectrons: 80.000000
LCAOMinimize: Iter:  11  F: -445.0535584291301348  |grad|_K:  2.676e-05  alpha:  2.430e-01  linmin:  1.487e-04  cgtest: -5.392e-04  t[s]:     64.49
	FillingsUpdate:  mu: -0.230904005  nElectrons: 80.000000
LCAOMinimize: Iter:  12  F: -445.0535613393593053  |grad|_K:  2.685e-05  alpha:  7.799e-02  linmin: -8.118e-05  cgtest:  8.263e-04  t[s]:     69.96
	FillingsUpdate:  mu: -0.230898946  nElectrons: 80.000000
LCAOMinimize: Iter:  13  F: -445.0535654276657738  |grad|_K:  5.992e-06  alpha:  1.088e-01  linmin:  8.891e-05  cgtest: -1.160e-02  t[s]:     76.16
LCAOMinimize: 	Predicted alpha/alphaT>3.000000, increasing alphaT to 3.263709e-01.
	FillingsUpdate:  mu: -0.231331030  nElectrons: 80.000000
LCAOMinimize: Iter:  14  F: -445.0535661046717451  |grad|_K:  4.766e-06  alpha:  3.620e-01  linmin:  1.783e-04  cgtest: -1.346e-03  t[s]:     82.92
	FillingsUpdate:  mu: -0.231575327  nElectrons: 80.000000
LCAOMinimize: Iter:  15  F: -445.0535661513051195  |grad|_K:  2.092e-06  alpha:  3.950e-02  linmin: -2.425e-04  cgtest:  4.323e-03  t[s]:     87.20
LCAOMinimize: Converged (|Delta F|<1.000000e-06 for 2 iters).


---- Citations for features of the code used in this run ----

   Software package:
      R. Sundararaman, K. Letchworth-Weaver, K.A. Schwarz, D. Gunceler, Y. Ozhabes and T.A. Arias, 'JDFTx: software for joint density-functional theory', SoftwareX 6, 278 (2017)

   gga-PBEsol exchange-correlation functional:
      J.P. Perdew et al., Phys. Rev. Lett. 100, 136406 (2008)

   Pseudopotentials:
      KF Garrity, JW Bennett, KM Rabe and D Vanderbilt, Comput. Mater. Sci. 81, 446 (2014)

   Truncated Coulomb potentials:
      R. Sundararaman and T.A. Arias, Phys. Rev. B 87, 165122 (2013)

This list may not be complete. Please suggest additional citations or
report any other bugs at https://github.com/shankar1729/jdftx/issues

Initialization completed successfully at t[s]:     87.78

	FillingsUpdate:  mu: -0.231575327  nElectrons: 80.000000

-------- Electronic minimization -----------
Will mix electronic density at each iteration.
	FillingsUpdate:  mu: -0.231575327  nElectrons: 80.000000
	FillingsUpdate:  mu: -0.233080019  nElectrons: 80.000000
SCF: Cycle:  0   F: -445.120212754743307   dF: -6.665e-02   |Residual|: 6.135e-02   |deigs|: 6.215e-02  t[s]:    102.81
	FillingsUpdate:  mu: -0.228735972  nElectrons: 80.000000
SCF: Cycle:  1   F: -445.119685306013537   dF: +5.274e-04   |Residual|: 2.866e-02   |deigs|: 1.475e-02  t[s]:    113.65
	FillingsUpdate:  mu: -0.227901237  nElectrons: 80.000000
SCF: Cycle:  2   F: -445.112324671582428   dF: +7.361e-03   |Residual|: 3.719e-02   |deigs|: 3.632e-03  t[s]:    124.49
	FillingsUpdate:  mu: -0.227795291  nElectrons: 80.000000
SCF: Cycle:  3   F: -445.124747418193920   dF: -1.242e-02   |Residual|: 1.019e-02   |deigs|: 2.113e-03  t[s]:    135.38
	FillingsUpdate:  mu: -0.227212503  nElectrons: 80.000000
SCF: Cycle:  4   F: -445.125364772780131   dF: -6.174e-04   |Residual|: 6.850e-03   |deigs|: 7.768e-04  t[s]:    146.25
	FillingsUpdate:  mu: -0.226849226  nElectrons: 80.000000
SCF: Cycle:  5   F: -445.125545092826371   dF: -1.803e-04   |Residual|: 3.142e-03   |deigs|: 5.328e-04  t[s]:    157.78
	FillingsUpdate:  mu: -0.225664131  nElectrons: 80.000000
SCF: Cycle:  6   F: -445.125655606360795   dF: -1.105e-04   |Residual|: 2.483e-03   |deigs|: 1.149e-03  t[s]:    170.14
	FillingsUpdate:  mu: -0.222523867  nElectrons: 80.000000
SCF: Cycle:  7   F: -445.125832970469844   dF: -1.774e-04   |Residual|: 1.579e-03   |deigs|: 2.959e-03  t[s]:    184.75
	FillingsUpdate:  mu: -0.220091785  nElectrons: 80.000000
SCF: Cycle:  8   F: -445.125888585685345   dF: -5.562e-05   |Residual|: 8.676e-04   |deigs|: 2.330e-03  t[s]:    196.82
	FillingsUpdate:  mu: -0.216900291  nElectrons: 80.000000
SCF: Cycle:  9   F: -445.125889112203595   dF: -5.265e-07   |Residual|: 7.368e-04   |deigs|: 3.251e-03  t[s]:    208.84
	FillingsUpdate:  mu: -0.212715361  nElectrons: 80.000000
SCF: Cycle: 10   F: -445.125891089905735   dF: -1.978e-06   |Residual|: 4.970e-04   |deigs|: 4.821e-03  t[s]:    219.60
	FillingsUpdate:  mu: -0.211088313  nElectrons: 80.000000
SCF: Cycle: 11   F: -445.125892470205542   dF: -1.380e-06   |Residual|: 3.023e-04   |deigs|: 1.909e-03  t[s]:    229.57
	FillingsUpdate:  mu: -0.210554088  nElectrons: 80.000000
SCF: Cycle: 12   F: -445.125893339245636   dF: -8.690e-07   |Residual|: 9.611e-05   |deigs|: 8.622e-04  t[s]:    239.50
	FillingsUpdate:  mu: -0.210244681  nElectrons: 80.000000
SCF: Cycle: 13   F: -445.125893470185190   dF: -1.309e-07   |Residual|: 3.921e-05   |deigs|: 4.838e-04  t[s]:    248.78
	FillingsUpdate:  mu: -0.210208821  nElectrons: 80.000000
SCF: Cycle: 14   F: -445.125893483528444   dF: -1.334e-08   |Residual|: 2.036e-05   |deigs|: 1.798e-04  t[s]:    258.18
	FillingsUpdate:  mu: -0.210220678  nElectrons: 80.000000
SCF: Cycle: 15   F: -445.125893488607403   dF: -5.079e-09   |Residual|: 7.194e-06   |deigs|: 1.116e-04  t[s]:    267.75
	FillingsUpdate:  mu: -0.210217674  nElectrons: 80.000000
SCF: Cycle: 16   F: -445.125893489114333   dF: -5.069e-10   |Residual|: 4.187e-06   |deigs|: 7.509e-05  t[s]:    277.92
SCF: Converged (|Delta E|<1.000000e-08 for 2 iters).


# Ionic positions in lattice coordinates:
ion Pt   0.000000000000000   0.000000000000000  -0.200000000000000 1
ion Pt   0.500000000000000   0.500000000000000  -0.100000000000000 1
ion Pt   0.000000000000000   0.000000000000000   0.000000000000000 1
ion Pt   0.500000000000000   0.500000000000000   0.100000000000000 1
ion Pt   0.000000000000000   0.000000000000000   0.200000000000000 1


# Forces in Lattice coordinates:
force Pt   0.000000000000000  -0.000000000000000   0.240833907663063 1
force Pt   0.000000000000000  -0.000000000000000  -0.228750383225106 1
force Pt   0.000000000000000  -0.000000000000000   0.000000000000000 1
force Pt  -0.000000000000000  -0.000000000000000   0.228750383225106 1
force Pt   0.000000000000000  -0.000000000000000  -0.240833907663063 1

# Energy components:
   Eewald =    -4825.8788271614239420
       EH =    -4450.8136523365010362
     Eloc =     8754.7652621849047136
      Enl =       -5.2844046533439215
      Exc =     -141.5234320041397211
 Exc_core =       81.2082959828906041
       KE =      142.4588945178538495
-------------------------------------
     Etot =     -445.0678634697585494
       TS =        0.0580300193557879
-------------------------------------
        F =     -445.1258934891143326

IonicMinimize: Iter:   0  F: -445.125893489114333  |grad|_K:  3.274e-03  t[s]:    278.67
IonicMinimize: None of the convergence criteria satisfied after 0 iterations.

#--- Lowdin population analysis ---
# oxidation-state Pt +0.027 -0.008 +0.014 -0.008 +0.027


Dumping '100-Vacuum.fillings' ... done
Dumping '100-Vacuum.wfns' ... done
Dumping '100-Vacuum.ionpos' ... done
Dumping '100-Vacuum.n' ... done
Dumping '100-Vacuum.eigenvals' ... done
End date and time: Mon Mar 11 15:23:42 2019  (Duration: 0-0:04:39.32)
Done!
