
*************** JDFTx 1.4.2  ***************

Start date and time: Mon Mar 11 15:28:36 2019
Executable jdftx with command-line: -i Vacuum.in
Running on hosts (process indices):  dhcp-ccc-9638.eduroam.cornell.edu (0)
Divided in process groups (process indices):  0 (0)
Resource initialization completed at t[s]:      0.00
Run totals: 1 processes, 12 threads, 0 GPUs


Input parsed successfully to the following command list (including defaults):

basis kpoint-dependent
coords-type Lattice
core-overlap-check vector
coulomb-interaction Slab 001
coulomb-truncation-embed 0 0 0
davidson-band-ratio 1.1
dump End State IonicPositions ElecDensity
dump-name 110-Vacuum.$VAR
elec-cutoff 20 100
elec-eigen-algo Davidson
elec-ex-corr gga-PBEsol
elec-smearing Fermi 0.01
electronic-minimize  \
	dirUpdateScheme      FletcherReeves \
	linminMethod         DirUpdateRecommended \
	nIterations          100 \
	history              15 \
	knormThreshold       0 \
	energyDiffThreshold  1e-08 \
	nEnergyDiff          2 \
	alphaTstart          1 \
	alphaTmin            1e-10 \
	updateTestStepSize   yes \
	alphaTreduceFactor   0.1 \
	alphaTincreaseFactor 3 \
	nAlphaAdjustMax      3 \
	wolfeEnergy          0.0001 \
	wolfeGradient        0.9 \
	fdTest               no
electronic-scf  \
	nIterations	50 \
	energyDiffThreshold	1e-08 \
	residualThreshold	1e-07 \
	mixFraction	0.5 \
	qMetric	0.8 \
	history	10 \
	nEigSteps	2 \
	eigDiffThreshold	1e-08 \
	mixedVariable	Density \
	qKerker	0.8 \
	qKappa	-1 \
	verbose	no \
	mixFractionMag	1.5
exchange-regularization WignerSeitzTruncated
fluid None
fluid-ex-corr lda-TF lda-PZ
fluid-gummel-loop 10 1.000000e-05
fluid-minimize  \
	dirUpdateScheme      PolakRibiere \
	linminMethod         DirUpdateRecommended \
	nIterations          100 \
	history              15 \
	knormThreshold       0 \
	energyDiffThreshold  0 \
	nEnergyDiff          2 \
	alphaTstart          1 \
	alphaTmin            1e-10 \
	updateTestStepSize   yes \
	alphaTreduceFactor   0.1 \
	alphaTincreaseFactor 3 \
	nAlphaAdjustMax      3 \
	wolfeEnergy          0.0001 \
	wolfeGradient        0.9 \
	fdTest               no
fluid-solvent H2O 55.338 ScalarEOS \
	epsBulk 78.4 \
	pMol 0.92466 \
	epsInf 1.77 \
	Pvap 1.06736e-10 \
	sigmaBulk 4.62e-05 \
	Rvdw 2.61727 \
	Res 1.42
forces-output-coords Positions
ion Pt   0.000000000000000   0.000000000000000  -0.187130000000000 1
ion Pt   0.500000000000000   0.500000000000000  -0.093565000000000 1
ion Pt   0.000000000000000   0.000000000000000   0.000000000000000 1
ion Pt   0.500000000000000   0.500000000000000   0.093565000000000 1
ion Pt   0.000000000000000   0.000000000000000   0.187130000000000 1
ion-species GBRV/$ID_pbesol.uspp
ion-width 0
ionic-minimize  \
	dirUpdateScheme      L-BFGS \
	linminMethod         DirUpdateRecommended \
	nIterations          0 \
	history              15 \
	knormThreshold       0.0001 \
	energyDiffThreshold  1e-06 \
	nEnergyDiff          2 \
	alphaTstart          1 \
	alphaTmin            1e-10 \
	updateTestStepSize   yes \
	alphaTreduceFactor   0.1 \
	alphaTincreaseFactor 3 \
	nAlphaAdjustMax      3 \
	wolfeEnergy          0.0001 \
	wolfeGradient        0.9 \
	fdTest               no
kpoint   0.000000000000   0.000000000000   0.000000000000  1.00000000000000
kpoint-folding 12 12 1 
latt-move-scale 1 1 1
latt-scale 1 1 1 
lattice Orthorhombic 5.23966 7.41 28
lattice-minimize  \
	dirUpdateScheme      L-BFGS \
	linminMethod         DirUpdateRecommended \
	nIterations          0 \
	history              15 \
	knormThreshold       0 \
	energyDiffThreshold  1e-06 \
	nEnergyDiff          2 \
	alphaTstart          1 \
	alphaTmin            1e-10 \
	updateTestStepSize   yes \
	alphaTreduceFactor   0.1 \
	alphaTincreaseFactor 3 \
	nAlphaAdjustMax      3 \
	wolfeEnergy          0.0001 \
	wolfeGradient        0.9 \
	fdTest               no
lcao-params -1 1e-06 0.01
pcm-variant GLSSA13
spintype no-spin
subspace-rotation-factor 1 yes
symmetries automatic
symmetry-threshold 0.0001



---------- Setting up symmetries ----------

Found 8 point-group symmetries of the bravais lattice
Found 8 space-group symmetries with basis
Applied RMS atom displacement 0 bohrs to make symmetries exact.

---------- Initializing the Grid ----------
R = 
[    5.23966          0          0  ]
[          0       7.41          0  ]
[          0          0         28  ]
unit cell volume = 1087.12
G =
[    1.19916          0          0  ]
[          0   0.847933          0  ]
[          0          0   0.224399  ]
Minimum fftbox size, Smin = [  24  36  128  ]
Chosen fftbox size, S = [  24  36  128  ]

---------- Initializing tighter grid for wavefunction operations ----------
R = 
[    5.23966          0          0  ]
[          0       7.41          0  ]
[          0          0         28  ]
unit cell volume = 1087.12
G =
[    1.19916          0          0  ]
[          0   0.847933          0  ]
[          0          0   0.224399  ]
Minimum fftbox size, Smin = [  24  32  116  ]
Chosen fftbox size, S = [  24  32  120  ]

---------- Exchange Correlation functional ----------
Initalized PBEsol GGA exchange.
Initalized PBEsol GGA correlation.

---------- Setting up pseudopotentials ----------
Width of ionic core gaussian charges (only for fluid interactions / plotting) set to 0

Reading pseudopotential file '/Users/juanmendezvalderrama/Documents/JDFTX/build/pseudopotentials/GBRV/pt_pbesol.uspp':
  Title: Pt.  Created by USPP 7.3.6 on 22-9-15
  Reference state energy: -104.899005.  16 valence electrons in orbitals:
    |510>  occupation: 6  eigenvalue: -2.158847
    |520>  occupation: 9.5  eigenvalue: -0.336311
    |600>  occupation: 0  eigenvalue: -0.320324
    |610>  occupation: 0  eigenvalue: -0.119800
  lMax: 2  lLocal: 3  QijEcut: 5.5
  6 projectors sampled on a log grid with 745 points:
    l: 0  eig: -0.320324  rCut: 2.45
    l: 0  eig: 1.500000  rCut: 2.45
    l: 1  eig: -2.158847  rCut: 1.6
    l: 1  eig: -0.119800  rCut: 1.6
    l: 2  eig: -0.500000  rCut: 1.6
    l: 2  eig: -0.336311  rCut: 1.6
  Partial core density with radius 1.1
  Transforming core density to a uniform radial grid of dG=0.02 with 1277 points.
  Transforming local potential to a uniform radial grid of dG=0.02 with 1277 points.
  Transforming nonlocal projectors to a uniform radial grid of dG=0.02 with 432 points.
  Transforming density augmentations to a uniform radial grid of dG=0.02 with 1277 points.
  Transforming atomic orbitals to a uniform radial grid of dG=0.02 with 432 points.
  Core radius for overlap checks: 2.45 bohrs.

Initialized 1 species with 5 total atoms.

Folded 1 k-points by 12x12x1 to 144 k-points.

---------- Setting up k-points, bands, fillings ----------
Reduced to 49 k-points under symmetry. 
Computing the number of bands and number of electrons
Calculating initial fillings.
nElectrons:  80.000000   nBands: 60   nStates: 49

----- Setting up reduced wavefunction bases (one per k-point) -----
average nbasis = 4644.368 , ideal nbasis = 4644.279

---------- Setting up coulomb interaction ----------
Setting up double-sized grid for truncated Coulomb potentials:
R = 
[    5.23966          0          0  ]
[          0       7.41          0  ]
[          0          0         56  ]
unit cell volume = 2174.25
G =
[    1.19916          0          0  ]
[          0   0.847933          0  ]
[          0          0     0.1122  ]
Chosen fftbox size, S = [  24  36  256  ]
Integer grid location selected as the embedding center:
   Grid: [  0  0  0  ]
   Lattice: [  0  0  0  ]
   Cartesian: [  0  0  0  ]
Constructing Wigner-Seitz cell: 6 faces (6 quadrilaterals, 0 hexagons)
Range-separation parameter for embedded mesh potentials due to point charges: 0.590044 bohrs.
Initialized slab truncation along lattice direction 001

---------- Setting up 2D ewald sum ----------
Optimum gaussian width for ewald sums = 3.717177 bohr.
Real space sums over 221 unit cells with max indices [  8  6  0  ]
Reciprocal space sums over 99 terms with max indices [  4  5  0  ]

---------- Allocating electronic variables ----------
Initializing wave functions:  linear combination of atomic orbitals
Pt pseudo-atom occupations:   s ( 0 )  p ( 6 0 )  d ( 10 )
	FillingsUpdate:  mu: -1.221852400  nElectrons: 80.000000
LCAOMinimize: Iter:   0  F: -443.0428821865372697  |grad|_K:  1.672e-02  alpha:  1.000e+00
LCAOMinimize: 	Step increased F by 5.155802e+00, reducing alpha to 2.296396e-02.
	FillingsUpdate:  mu: -0.971582945  nElectrons: 80.000000
LCAOMinimize: Iter:   1  F: -444.0217531773590167  |grad|_K:  1.053e-02  alpha:  2.296e-02  linmin: -3.724e-01  cgtest:  9.457e-01  t[s]:     26.03
LCAOMinimize: Encountered beta<0, resetting CG.
	FillingsUpdate:  mu: -0.368044450  nElectrons: 80.000000
LCAOMinimize: Iter:   2  F: -444.6264820844418182  |grad|_K:  4.417e-03  alpha:  6.330e-02  linmin:  7.041e-02  cgtest: -1.578e-01  t[s]:     33.10
	FillingsUpdate:  mu: -0.192316328  nElectrons: 80.000000
LCAOMinimize: Iter:   3  F: -444.9408123799576629  |grad|_K:  1.492e-03  alpha:  1.798e-01  linmin: -1.551e-01  cgtest:  6.775e-01  t[s]:     40.20
LCAOMinimize: Encountered beta<0, resetting CG.
	FillingsUpdate:  mu: -0.277096150  nElectrons: 80.000000
LCAOMinimize: Iter:   4  F: -444.9683637184255645  |grad|_K:  1.400e-03  alpha:  1.359e-01  linmin: -6.229e-05  cgtest: -1.725e-02  t[s]:     47.38
	FillingsUpdate:  mu: -0.211137745  nElectrons: 80.000000
LCAOMinimize: Iter:   5  F: -444.9978617423533365  |grad|_K:  8.984e-04  alpha:  1.635e-01  linmin: -1.212e-02  cgtest:  1.329e-01  t[s]:     54.45
	FillingsUpdate:  mu: -0.192692149  nElectrons: 80.000000
LCAOMinimize: Iter:   6  F: -445.0123371129333236  |grad|_K:  2.553e-04  alpha:  1.902e-01  linmin: -9.952e-03  cgtest: -9.456e-02  t[s]:     61.57
	FillingsUpdate:  mu: -0.208672795  nElectrons: 80.000000
LCAOMinimize: Iter:   7  F: -445.0128097921288486  |grad|_K:  1.412e-04  alpha:  7.796e-02  linmin: -1.082e-03  cgtest:  2.559e-03  t[s]:     68.97
	FillingsUpdate:  mu: -0.215287293  nElectrons: 80.000000
LCAOMinimize: Iter:   8  F: -445.0131670472194401  |grad|_K:  5.878e-05  alpha:  1.963e-01  linmin:  6.920e-04  cgtest:  5.396e-02  t[s]:     75.99
	FillingsUpdate:  mu: -0.213270419  nElectrons: 80.000000
LCAOMinimize: Iter:   9  F: -445.0132065882972370  |grad|_K:  4.115e-05  alpha:  1.257e-01  linmin: -6.710e-06  cgtest:  4.778e-03  t[s]:     83.01
	FillingsUpdate:  mu: -0.215216420  nElectrons: 80.000000
LCAOMinimize: Iter:  10  F: -445.0132205405806758  |grad|_K:  1.236e-05  alpha:  9.029e-02  linmin:  2.492e-04  cgtest: -6.466e-03  t[s]:     90.06
LCAOMinimize: 	Predicted alpha/alphaT>3.000000, increasing alphaT to 2.708798e-01.
	FillingsUpdate:  mu: -0.215782134  nElectrons: 80.000000
LCAOMinimize: Iter:  11  F: -445.0132253341994328  |grad|_K:  1.175e-05  alpha:  3.445e-01  linmin:  1.124e-04  cgtest: -2.441e-04  t[s]:     99.05
	FillingsUpdate:  mu: -0.215120610  nElectrons: 80.000000
LCAOMinimize: Iter:  12  F: -445.0132264286029908  |grad|_K:  6.157e-06  alpha:  8.691e-02  linmin: -8.595e-05  cgtest:  8.577e-04  t[s]:    106.08
	FillingsUpdate:  mu: -0.215093434  nElectrons: 80.000000
LCAOMinimize: Iter:  13  F: -445.0132269527773019  |grad|_K:  1.847e-06  alpha:  1.517e-01  linmin:  2.107e-04  cgtest: -3.185e-03  t[s]:    113.19
	FillingsUpdate:  mu: -0.215228111  nElectrons: 80.000000
LCAOMinimize: Iter:  14  F: -445.0132270193532804  |grad|_K:  2.398e-06  alpha:  2.139e-01  linmin: -4.714e-04  cgtest:  2.892e-03  t[s]:    120.21
LCAOMinimize: Converged (|Delta F|<1.000000e-06 for 2 iters).


---- Citations for features of the code used in this run ----

   Software package:
      R. Sundararaman, K. Letchworth-Weaver, K.A. Schwarz, D. Gunceler, Y. Ozhabes and T.A. Arias, 'JDFTx: software for joint density-functional theory', SoftwareX 6, 278 (2017)

   gga-PBEsol exchange-correlation functional:
      J.P. Perdew et al., Phys. Rev. Lett. 100, 136406 (2008)

   Pseudopotentials:
      KF Garrity, JW Bennett, KM Rabe and D Vanderbilt, Comput. Mater. Sci. 81, 446 (2014)

   Truncated Coulomb potentials:
      R. Sundararaman and T.A. Arias, Phys. Rev. B 87, 165122 (2013)

This list may not be complete. Please suggest additional citations or
report any other bugs at https://github.com/shankar1729/jdftx/issues

Initialization completed successfully at t[s]:    121.34

	FillingsUpdate:  mu: -0.215228111  nElectrons: 80.000000

-------- Electronic minimization -----------
Will mix electronic density at each iteration.
	FillingsUpdate:  mu: -0.215228111  nElectrons: 80.000000
	FillingsUpdate:  mu: -0.216684474  nElectrons: 80.000000
SCF: Cycle:  0   F: -445.078520908594214   dF: -6.529e-02   |Residual|: 6.549e-02   |deigs|: 6.155e-02  t[s]:    147.32
	FillingsUpdate:  mu: -0.211254267  nElectrons: 80.000000
SCF: Cycle:  1   F: -445.084134673058998   dF: -5.614e-03   |Residual|: 2.626e-02   |deigs|: 1.143e-02  t[s]:    166.65
	FillingsUpdate:  mu: -0.210227109  nElectrons: 80.000000
SCF: Cycle:  2   F: -445.083759373289411   dF: +3.753e-04   |Residual|: 2.309e-02   |deigs|: 2.589e-03  t[s]:    187.73
	FillingsUpdate:  mu: -0.209931205  nElectrons: 80.000000
SCF: Cycle:  3   F: -445.084849388547354   dF: -1.090e-03   |Residual|: 1.265e-02   |deigs|: 1.635e-03  t[s]:    211.55
	FillingsUpdate:  mu: -0.208954697  nElectrons: 80.000000
SCF: Cycle:  4   F: -445.085990417920641   dF: -1.141e-03   |Residual|: 2.869e-03   |deigs|: 1.203e-03  t[s]:    231.99
	FillingsUpdate:  mu: -0.208246889  nElectrons: 80.000000
SCF: Cycle:  5   F: -445.085979343566692   dF: +1.107e-05   |Residual|: 2.745e-03   |deigs|: 8.565e-04  t[s]:    257.72
	FillingsUpdate:  mu: -0.207233740  nElectrons: 80.000000
SCF: Cycle:  6   F: -445.086039050231705   dF: -5.971e-05   |Residual|: 1.694e-03   |deigs|: 9.721e-04  t[s]:    280.43
	FillingsUpdate:  mu: -0.204166912  nElectrons: 80.000000
SCF: Cycle:  7   F: -445.086094398290072   dF: -5.535e-05   |Residual|: 1.185e-03   |deigs|: 2.955e-03  t[s]:    305.56
	FillingsUpdate:  mu: -0.201699547  nElectrons: 80.000000
SCF: Cycle:  8   F: -445.086111999874618   dF: -1.760e-05   |Residual|: 7.999e-04   |deigs|: 2.422e-03  t[s]:    324.55
	FillingsUpdate:  mu: -0.199569224  nElectrons: 80.000000
SCF: Cycle:  9   F: -445.086113197332850   dF: -1.197e-06   |Residual|: 4.589e-04   |deigs|: 2.194e-03  t[s]:    342.20
	FillingsUpdate:  mu: -0.198104997  nElectrons: 80.000000
SCF: Cycle: 10   F: -445.086113847391687   dF: -6.501e-07   |Residual|: 2.164e-04   |deigs|: 1.629e-03  t[s]:    360.65
	FillingsUpdate:  mu: -0.198002677  nElectrons: 80.000000
SCF: Cycle: 11   F: -445.086113952116762   dF: -1.047e-07   |Residual|: 7.998e-05   |deigs|: 2.499e-04  t[s]:    382.06
	FillingsUpdate:  mu: -0.197889217  nElectrons: 80.000000
SCF: Cycle: 12   F: -445.086113971122074   dF: -1.901e-08   |Residual|: 3.039e-05   |deigs|: 2.089e-04  t[s]:    401.30
	FillingsUpdate:  mu: -0.197862224  nElectrons: 80.000000
SCF: Cycle: 13   F: -445.086113973889780   dF: -2.768e-09   |Residual|: 1.122e-05   |deigs|: 7.158e-05  t[s]:    419.13
	FillingsUpdate:  mu: -0.197859763  nElectrons: 80.000000
SCF: Cycle: 14   F: -445.086113974046214   dF: -1.564e-10   |Residual|: 5.745e-06   |deigs|: 4.009e-05  t[s]:    439.71
SCF: Converged (|Delta E|<1.000000e-08 for 2 iters).


# Ionic positions in lattice coordinates:
ion Pt   0.000000000000000   0.000000000000000  -0.187130000000000 1
ion Pt   0.500000000000000   0.500000000000000  -0.093565000000000 1
ion Pt   0.000000000000000   0.000000000000000   0.000000000000000 1
ion Pt   0.500000000000000   0.500000000000000   0.093565000000000 1
ion Pt   0.000000000000000   0.000000000000000   0.187130000000000 1


# Forces in Lattice coordinates:
force Pt   0.000000000000000   0.000000000000000   0.535558334328675 1
force Pt   0.000000000000000   0.000000000000000  -0.579932077456301 1
force Pt   0.000000000000000   0.000000000000000   0.000000000000000 1
force Pt   0.000000000000000   0.000000000000000   0.579932077456301 1
force Pt   0.000000000000000   0.000000000000000  -0.535558334328675 1

# Energy components:
   Eewald =    -2603.3058727314746648
       EH =    -2226.8853750650505390
     Eloc =     4308.2810515636265336
      Enl =       -5.2864092185745530
      Exc =     -141.4452213615949745
 Exc_core =       81.2082843751934433
       KE =      142.4107355779114243
-------------------------------------
     Etot =     -445.0228068599634526
       TS =        0.0633071140827742
-------------------------------------
        F =     -445.0861139740462136

IonicMinimize: Iter:   0  F: -445.086113974046214  |grad|_K:  1.029e-02  t[s]:    441.07
IonicMinimize: None of the convergence criteria satisfied after 0 iterations.

#--- Lowdin population analysis ---
# oxidation-state Pt +0.073 -0.049 +0.008 -0.049 +0.073


Dumping '110-Vacuum.fillings' ... done
Dumping '110-Vacuum.wfns' ... done
Dumping '110-Vacuum.ionpos' ... done
Dumping '110-Vacuum.n' ... done
Dumping '110-Vacuum.eigenvals' ... done
End date and time: Mon Mar 11 15:35:58 2019  (Duration: 0-0:07:22.16)
Done!
