
*************** JDFTx 1.4.2  ***************

Start date and time: Mon Mar 11 15:46:36 2019
Executable jdftx with command-line: -i Solvated.in
Running on hosts (process indices):  dhcp-ccc-9638.eduroam.cornell.edu (0)
Divided in process groups (process indices):  0 (0)
Resource initialization completed at t[s]:      0.00
Run totals: 1 processes, 12 threads, 0 GPUs


Input parsed successfully to the following command list (including defaults):

basis kpoint-dependent
coords-type Lattice
core-overlap-check vector
coulomb-interaction Slab 001
coulomb-truncation-embed 0 0 0
davidson-band-ratio 1.1
dump End State ElecDensity Ecomponents
dump-name $INPUT.$VAR
elec-cutoff 20 100
elec-eigen-algo Davidson
elec-ex-corr gga-PBEsol
elec-smearing Fermi 0.01
electronic-minimize  \
	dirUpdateScheme      FletcherReeves \
	linminMethod         DirUpdateRecommended \
	nIterations          100 \
	history              15 \
	knormThreshold       0 \
	energyDiffThreshold  1e-08 \
	nEnergyDiff          2 \
	alphaTstart          1 \
	alphaTmin            1e-10 \
	updateTestStepSize   yes \
	alphaTreduceFactor   0.1 \
	alphaTincreaseFactor 3 \
	nAlphaAdjustMax      3 \
	wolfeEnergy          0.0001 \
	wolfeGradient        0.9 \
	fdTest               no
electronic-scf  \
	nIterations	50 \
	energyDiffThreshold	1e-08 \
	residualThreshold	1e-07 \
	mixFraction	0.5 \
	qMetric	0.8 \
	history	10 \
	nEigSteps	2 \
	eigDiffThreshold	1e-08 \
	mixedVariable	Density \
	qKerker	0.8 \
	qKappa	-1 \
	verbose	no \
	mixFractionMag	1.5
exchange-regularization WignerSeitzTruncated
fluid LinearPCM 298.000000 1.013250
fluid-anion F- 1 MeanFieldLJ \
	epsBulk 1 \
	pMol 0 \
	epsInf 1 \
	Pvap 0 \
	sigmaBulk 0 \
	Rvdw 2.24877 \
	Res 0
fluid-cation Na+ 1 MeanFieldLJ \
	epsBulk 1 \
	pMol 0 \
	epsInf 1 \
	Pvap 0 \
	sigmaBulk 0 \
	Rvdw 2.19208 \
	Res 0
fluid-ex-corr lda-TF lda-PZ
fluid-gummel-loop 10 1.000000e-05
fluid-minimize  \
	dirUpdateScheme      PolakRibiere \
	linminMethod         DirUpdateRecommended \
	nIterations          400 \
	history              15 \
	knormThreshold       1e-11 \
	energyDiffThreshold  0 \
	nEnergyDiff          2 \
	alphaTstart          1 \
	alphaTmin            1e-10 \
	updateTestStepSize   yes \
	alphaTreduceFactor   0.1 \
	alphaTincreaseFactor 3 \
	nAlphaAdjustMax      6 \
	wolfeEnergy          0.0001 \
	wolfeGradient        0.9 \
	fdTest               no
fluid-solvent H2O 55.338 ScalarEOS \
	epsBulk 78.4 \
	pMol 0.92466 \
	epsInf 1.77 \
	Pvap 1.06736e-10 \
	sigmaBulk 4.62e-05 \
	Rvdw 2.61727 \
	Res 1.42
forces-output-coords Positions
initial-state 111-Vacuum.$VAR
ion Pt   0.333333333333333  -0.333333333333333  -0.237676000000000 1
ion Pt  -0.333333333333333   0.333333333333333  -0.118838000000000 1
ion Pt   0.000000000000000   0.000000000000000   0.000000000000000 1
ion Pt   0.333333333333333  -0.333333333333333   0.118838000000000 1
ion Pt  -0.333333333333333   0.333333333333333   0.237676000000000 1
ion-species GBRV/$ID_pbesol.uspp
ion-width Ecut
ionic-minimize  \
	dirUpdateScheme      L-BFGS \
	linminMethod         DirUpdateRecommended \
	nIterations          0 \
	history              15 \
	knormThreshold       0.0001 \
	energyDiffThreshold  1e-06 \
	nEnergyDiff          2 \
	alphaTstart          1 \
	alphaTmin            1e-10 \
	updateTestStepSize   yes \
	alphaTreduceFactor   0.1 \
	alphaTincreaseFactor 3 \
	nAlphaAdjustMax      3 \
	wolfeEnergy          0.0001 \
	wolfeGradient        0.9 \
	fdTest               no
kpoint   0.000000000000   0.000000000000   0.000000000000  1.00000000000000
kpoint-folding 12 12 1 
latt-move-scale 1 1 1
latt-scale 1 1 1 
lattice Hexagonal 5.23966 36
lattice-minimize  \
	dirUpdateScheme      L-BFGS \
	linminMethod         DirUpdateRecommended \
	nIterations          0 \
	history              15 \
	knormThreshold       0 \
	energyDiffThreshold  1e-06 \
	nEnergyDiff          2 \
	alphaTstart          1 \
	alphaTmin            1e-10 \
	updateTestStepSize   yes \
	alphaTreduceFactor   0.1 \
	alphaTincreaseFactor 3 \
	nAlphaAdjustMax      3 \
	wolfeEnergy          0.0001 \
	wolfeGradient        0.9 \
	fdTest               no
lcao-params -1 1e-06 0.01
pcm-variant CANDLE
spintype no-spin
subspace-rotation-factor 1 yes
symmetries automatic
symmetry-threshold 0.0001



---------- Setting up symmetries ----------

Found 24 point-group symmetries of the bravais lattice
Found 12 space-group symmetries with basis
Applied RMS atom displacement 3.00398e-15 bohrs to make symmetries exact.

---------- Initializing the Grid ----------
R = 
[    5.23966   -2.61983          0  ]
[          0    4.53768          0  ]
[          0          0         36  ]
unit cell volume = 855.932
G =
[    1.19916   0.692335         -0  ]
[          0    1.38467          0  ]
[          0         -0   0.174533  ]
Minimum fftbox size, Smin = [  24  24  164  ]
Chosen fftbox size, S = [  24  24  168  ]

---------- Initializing tighter grid for wavefunction operations ----------
R = 
[    5.23966   -2.61983          0  ]
[          0    4.53768          0  ]
[          0          0         36  ]
unit cell volume = 855.932
G =
[    1.19916   0.692335         -0  ]
[          0    1.38467          0  ]
[          0         -0   0.174533  ]
Minimum fftbox size, Smin = [  24  24  148  ]
Chosen fftbox size, S = [  24  24  150  ]

---------- Exchange Correlation functional ----------
Initalized PBEsol GGA exchange.
Initalized PBEsol GGA correlation.

---------- Setting up pseudopotentials ----------
Width of ionic core gaussian charges (only for fluid interactions / plotting) set to 0.397384

Reading pseudopotential file '/Users/juanmendezvalderrama/Documents/JDFTX/build/pseudopotentials/GBRV/pt_pbesol.uspp':
  Title: Pt.  Created by USPP 7.3.6 on 22-9-15
  Reference state energy: -104.899005.  16 valence electrons in orbitals:
    |510>  occupation: 6  eigenvalue: -2.158847
    |520>  occupation: 9.5  eigenvalue: -0.336311
    |600>  occupation: 0  eigenvalue: -0.320324
    |610>  occupation: 0  eigenvalue: -0.119800
  lMax: 2  lLocal: 3  QijEcut: 5.5
  6 projectors sampled on a log grid with 745 points:
    l: 0  eig: -0.320324  rCut: 2.45
    l: 0  eig: 1.500000  rCut: 2.45
    l: 1  eig: -2.158847  rCut: 1.6
    l: 1  eig: -0.119800  rCut: 1.6
    l: 2  eig: -0.500000  rCut: 1.6
    l: 2  eig: -0.336311  rCut: 1.6
  Partial core density with radius 1.1
  Transforming core density to a uniform radial grid of dG=0.02 with 1620 points.
  Transforming local potential to a uniform radial grid of dG=0.02 with 1620 points.
  Transforming nonlocal projectors to a uniform radial grid of dG=0.02 with 432 points.
  Transforming density augmentations to a uniform radial grid of dG=0.02 with 1620 points.
  Transforming atomic orbitals to a uniform radial grid of dG=0.02 with 432 points.
  Core radius for overlap checks: 2.45 bohrs.

Initialized 1 species with 5 total atoms.

Folded 1 k-points by 12x12x1 to 144 k-points.

---------- Setting up k-points, bands, fillings ----------
Reduced to 19 k-points under symmetry. 
Computing the number of bands and number of electrons
Reading initial fillings from file 111-Vacuum.fillings.
nElectrons:  80.000000   nBands: 60   nStates: 19

----- Setting up reduced wavefunction bases (one per k-point) -----
average nbasis = 3657.132 , ideal nbasis = 3656.607

---------- Setting up coulomb interaction ----------
Fluid mode embedding: using embedded box, but periodic Coulomb kernel.
(Fluid response is responsible for (approximate) separation between periodic images.)
Setting up double-sized grid for truncated Coulomb potentials:
R = 
[    5.23966   -2.61983          0  ]
[          0    4.53768          0  ]
[          0          0         72  ]
unit cell volume = 1711.86
G =
[    1.19916   0.692335         -0  ]
[          0    1.38467          0  ]
[          0         -0  0.0872665  ]
Chosen fftbox size, S = [  24  24  336  ]
Integer grid location selected as the embedding center:
   Grid: [  0  0  0  ]
   Lattice: [  0  0  0  ]
   Cartesian: [  0  0  0  ]
Constructing Wigner-Seitz cell: 8 faces (6 quadrilaterals, 2 hexagons)
Range-separation parameter for embedded mesh potentials due to point charges: 0.589462 bohrs.

Initializing van der Waals corrections
	NOTE: vdW corrections apply only for interactions with fluid.
	Pt:  C6:  815.23 Eh-a0^6  R0: 3.326 a0 (WARNING: beyond Grimme's data set)

---------- Setting up ewald sum ----------
Optimum gaussian width for ewald sums = 3.649540 bohr.
Real space sum over 1805 unit cells with max indices [  9  9  2  ]
Reciprocal space sum over 5103 terms with max indices [  4  4  31  ]

---------- Allocating electronic variables ----------
Initializing wave functions:  reading from '111-Vacuum.wfns'
----- createFluidSolver() ----- (Fluid-side solver setup)
   Initializing fluid molecule 'H2O'
     Initializing site 'O'
       Electron density: proportional to exp(-r/0.36935)*erfc((r-0.51523)/0.36823) with norm 6.826
       Charge density: gaussian nuclear width 0.478731 with net site charge 0.826
       Polarizability: cuspless exponential with width 0.32 and norm 3.73
       Hard sphere radius: 2.57003 bohrs
       Positions in reference frame:
         [ +0.000000 +0.000000 +0.000000 ]
     Initializing site 'H'
       Electron density: proportional to exp(-r/0.34641)*erfc((r-0)/0.390882) with norm 0.587
       Charge density: gaussian nuclear width 0.377945 with net site charge -0.413
       Polarizability: cuspless exponential with width 0.39 and norm 3.3
       Positions in reference frame:
         [ +0.000000 -1.441945 +1.122523 ]
         [ +0.000000 +1.441945 +1.122523 ]
     Net charge: 0   dipole magnitude: 0.927204
     Initializing spherical shell mfKernel with radius 2.61727 Bohr
     deltaS corrections:
       site 'O': -7.54299
       site 'H': -6.83917
   Initializing fluid molecule 'Na+'
     Initializing site 'Na'
       Electron density: proportional to exp(-r/0.19682)*erfc((r-0.71491)/0.41314) with norm 8.1383
       Charge density: gaussian nuclear width 0.365347 with net site charge -1
       Hard sphere radius: 1.86327 bohrs
       Positions in reference frame:
         [ +0.000000 +0.000000 +0.000000 ]
     Net charge: -1   dipole magnitude: 0
     Initializing gaussian mfKernel with width: 1.55004 Bohr
     deltaS corrections:
       site 'Na': -22.3555
   Initializing fluid molecule 'F-'
     Initializing site 'F'
       Electron density: proportional to exp(-r/0.38886)*erfc((r-0)/0.438782) with norm 8
       Charge density: gaussian nuclear width 0.374796 with net site charge 1
       Hard sphere radius: 2.39995 bohrs
       Positions in reference frame:
         [ +0.000000 +0.000000 +0.000000 ]
     Net charge: 1   dipole magnitude: 0
     Initializing gaussian mfKernel with width: 1.59012 Bohr
     deltaS corrections:
       site 'F': -9.04335

Correction to mu due to finite nuclear width = -0.0463682
   Cavity determined by nc: 0.00142 and sigma: 0.707107
   Nonlocal vdW cavity from gaussian model electron density with norm = 8 and sigma = 0.993594 bohr
   Charge asymmetry in cavity with sensitivity pCavity = 36.5 e-bohr/Eh
   Electrostatic cavity expanded by eta = 1.46 bohrs
   Weighted density cavitation model constrained by Nbulk: 0.0049383 bohr^-3, Pvap: 3.14029 kPa, Rvdw: 2.61727 bohr and sigmaBulk: 4.62e-05 Eh/bohr^2 at T: 298 K.
   Weighted density dispersion model using vdW pair potentials with single solvent site with sqrtC6eff: 0.77 SI.


---- Citations for features of the code used in this run ----

   Software package:
      R. Sundararaman, K. Letchworth-Weaver, K.A. Schwarz, D. Gunceler, Y. Ozhabes and T.A. Arias, 'JDFTx: software for joint density-functional theory', SoftwareX 6, 278 (2017)

   gga-PBEsol exchange-correlation functional:
      J.P. Perdew et al., Phys. Rev. Lett. 100, 136406 (2008)

   Pseudopotentials:
      KF Garrity, JW Bennett, KM Rabe and D Vanderbilt, Comput. Mater. Sci. 81, 446 (2014)

   Truncated Coulomb potentials:
      R. Sundararaman and T.A. Arias, Phys. Rev. B 87, 165122 (2013)

   Van der Waals correction pair-potentials:
      S. Grimme, J. Comput. Chem. 27, 1787 (2006)

   Charge-asymmetric nonlocally-determined local-electric (CANDLE) solvation model:
      R. Sundararaman and W.A. Goddard III, J. Chem. Phys. 142, 064107 (2015)

This list may not be complete. Please suggest additional citations or
report any other bugs at https://github.com/shankar1729/jdftx/issues

Initialization completed successfully at t[s]:      2.82

	Linear fluid (dielectric constant: 78.4, screening length: 5.74355 Bohr) occupying 0.594657 of unit cell:	Completed after 18 iterations at t[s]:      5.05

-------- Electronic minimization -----------
Will mix electronic density at each iteration.
	FillingsUpdate:  mu: -0.211082264  nElectrons: 80.000000
	Linear fluid (dielectric constant: 78.4, screening length: 5.74355 Bohr) occupying 0.594657 of unit cell:	Completed after 0 iterations at t[s]:      5.90
	FillingsUpdate:  mu: -0.204918141  nElectrons: 80.000000
	Linear fluid (dielectric constant: 78.4, screening length: 5.74355 Bohr) occupying 0.596340 of unit cell:	Completed after 14 iterations at t[s]:     13.39
SCF: Cycle:  0   F: -445.151196593324130   dF: +9.714e-06   |Residual|: 1.285e-03   |deigs|: 1.730e-04  t[s]:     13.54
	Linear fluid (dielectric constant: 78.4, screening length: 5.74355 Bohr) occupying 0.594449 of unit cell:	Completed after 14 iterations at t[s]:     13.77
	FillingsUpdate:  mu: -0.204054617  nElectrons: 80.000000
	Linear fluid (dielectric constant: 78.4, screening length: 5.74355 Bohr) occupying 0.596224 of unit cell:	Completed after 14 iterations at t[s]:     22.11
SCF: Cycle:  1   F: -445.151234423942128   dF: -3.783e-05   |Residual|: 1.325e-03   |deigs|: 8.292e-04  t[s]:     22.22
	Linear fluid (dielectric constant: 78.4, screening length: 5.74355 Bohr) occupying 0.594485 of unit cell:	Completed after 14 iterations at t[s]:     22.41
	FillingsUpdate:  mu: -0.203864568  nElectrons: 80.000000
	Linear fluid (dielectric constant: 78.4, screening length: 5.74355 Bohr) occupying 0.596225 of unit cell:	Completed after 13 iterations at t[s]:     29.88
SCF: Cycle:  2   F: -445.151169573439518   dF: +6.485e-05   |Residual|: 1.691e-03   |deigs|: 2.389e-04  t[s]:     30.02
	Linear fluid (dielectric constant: 78.4, screening length: 5.74355 Bohr) occupying 0.594508 of unit cell:	Completed after 14 iterations at t[s]:     30.31
	FillingsUpdate:  mu: -0.203459183  nElectrons: 80.000000
	Linear fluid (dielectric constant: 78.4, screening length: 5.74355 Bohr) occupying 0.596204 of unit cell:	Completed after 14 iterations at t[s]:     36.94
SCF: Cycle:  3   F: -445.151241626581623   dF: -7.205e-05   |Residual|: 5.111e-04   |deigs|: 3.929e-04  t[s]:     37.04
	Linear fluid (dielectric constant: 78.4, screening length: 5.74355 Bohr) occupying 0.594623 of unit cell:	Completed after 13 iterations at t[s]:     37.24
	FillingsUpdate:  mu: -0.203063377  nElectrons: 80.000000
	Linear fluid (dielectric constant: 78.4, screening length: 5.74355 Bohr) occupying 0.596194 of unit cell:	Completed after 14 iterations at t[s]:     43.44
SCF: Cycle:  4   F: -445.151242029446053   dF: -4.029e-07   |Residual|: 6.221e-04   |deigs|: 3.800e-04  t[s]:     43.55
	Linear fluid (dielectric constant: 78.4, screening length: 5.74355 Bohr) occupying 0.594908 of unit cell:	Completed after 14 iterations at t[s]:     43.74
	FillingsUpdate:  mu: -0.202336723  nElectrons: 80.000000
	Linear fluid (dielectric constant: 78.4, screening length: 5.74355 Bohr) occupying 0.596184 of unit cell:	Completed after 12 iterations at t[s]:     50.35
SCF: Cycle:  5   F: -445.151246331624918   dF: -4.302e-06   |Residual|: 2.224e-04   |deigs|: 6.975e-04  t[s]:     50.45
	Linear fluid (dielectric constant: 78.4, screening length: 5.74355 Bohr) occupying 0.595414 of unit cell:	Completed after 10 iterations at t[s]:     50.60
	FillingsUpdate:  mu: -0.201817585  nElectrons: 80.000000
	Linear fluid (dielectric constant: 78.4, screening length: 5.74355 Bohr) occupying 0.596178 of unit cell:	Completed after 11 iterations at t[s]:     55.74
SCF: Cycle:  6   F: -445.151247071788191   dF: -7.402e-07   |Residual|: 1.491e-04   |deigs|: 4.972e-04  t[s]:     55.84
	Linear fluid (dielectric constant: 78.4, screening length: 5.74355 Bohr) occupying 0.595932 of unit cell:	Completed after 10 iterations at t[s]:     55.99
	FillingsUpdate:  mu: -0.201531194  nElectrons: 80.000000
	Linear fluid (dielectric constant: 78.4, screening length: 5.74355 Bohr) occupying 0.596167 of unit cell:	Completed after 9 iterations at t[s]:     61.56
SCF: Cycle:  7   F: -445.151247288511570   dF: -2.167e-07   |Residual|: 1.035e-04   |deigs|: 2.820e-04  t[s]:     61.66
	Linear fluid (dielectric constant: 78.4, screening length: 5.74355 Bohr) occupying 0.596238 of unit cell:	Completed after 11 iterations at t[s]:     61.82
	FillingsUpdate:  mu: -0.201409309  nElectrons: 80.000000
	Linear fluid (dielectric constant: 78.4, screening length: 5.74355 Bohr) occupying 0.596143 of unit cell:	Completed after 7 iterations at t[s]:     67.83
SCF: Cycle:  8   F: -445.151247426479756   dF: -1.380e-07   |Residual|: 6.306e-05   |deigs|: 3.301e-04  t[s]:     67.93
	Linear fluid (dielectric constant: 78.4, screening length: 5.74355 Bohr) occupying 0.596225 of unit cell:	Completed after 7 iterations at t[s]:     68.05
	FillingsUpdate:  mu: -0.201408407  nElectrons: 80.000000
	Linear fluid (dielectric constant: 78.4, screening length: 5.74355 Bohr) occupying 0.596133 of unit cell:	Completed after 9 iterations at t[s]:     74.13
SCF: Cycle:  9   F: -445.151247451058680   dF: -2.458e-08   |Residual|: 3.686e-05   |deigs|: 2.886e-04  t[s]:     74.24
	Linear fluid (dielectric constant: 78.4, screening length: 5.74355 Bohr) occupying 0.596159 of unit cell:	Completed after 5 iterations at t[s]:     74.34
	FillingsUpdate:  mu: -0.201465575  nElectrons: 80.000000
	Linear fluid (dielectric constant: 78.4, screening length: 5.74355 Bohr) occupying 0.596134 of unit cell:	Completed after 9 iterations at t[s]:     80.48
SCF: Cycle: 10   F: -445.151247400715079   dF: +5.034e-08   |Residual|: 4.332e-05   |deigs|: 2.144e-04  t[s]:     80.59
	Linear fluid (dielectric constant: 78.4, screening length: 5.74355 Bohr) occupying 0.596144 of unit cell:	Completed after 10 iterations at t[s]:     80.74
	FillingsUpdate:  mu: -0.201411964  nElectrons: 80.000000
	Linear fluid (dielectric constant: 78.4, screening length: 5.74355 Bohr) occupying 0.596128 of unit cell:	Completed after 10 iterations at t[s]:     86.73
SCF: Cycle: 11   F: -445.151247365475626   dF: +3.524e-08   |Residual|: 5.965e-05   |deigs|: 8.800e-05  t[s]:     86.83
	Linear fluid (dielectric constant: 78.4, screening length: 5.74355 Bohr) occupying 0.596138 of unit cell:	Completed after 10 iterations at t[s]:     86.99
	FillingsUpdate:  mu: -0.201427658  nElectrons: 80.000000
	Linear fluid (dielectric constant: 78.4, screening length: 5.74355 Bohr) occupying 0.596129 of unit cell:	Completed after 9 iterations at t[s]:     92.44
SCF: Cycle: 12   F: -445.151247459747594   dF: -9.427e-08   |Residual|: 1.762e-05   |deigs|: 1.863e-05  t[s]:     92.54
	Linear fluid (dielectric constant: 78.4, screening length: 5.74355 Bohr) occupying 0.596138 of unit cell:	Completed after 10 iterations at t[s]:     92.69
	FillingsUpdate:  mu: -0.201430469  nElectrons: 80.000000
	Linear fluid (dielectric constant: 78.4, screening length: 5.74355 Bohr) occupying 0.596130 of unit cell:	Completed after 8 iterations at t[s]:     97.28
SCF: Cycle: 13   F: -445.151247455798170   dF: +3.949e-09   |Residual|: 1.865e-05   |deigs|: 5.622e-06  t[s]:     97.38
	Linear fluid (dielectric constant: 78.4, screening length: 5.74355 Bohr) occupying 0.596137 of unit cell:	Completed after 9 iterations at t[s]:     97.53
	FillingsUpdate:  mu: -0.201437101  nElectrons: 80.000000
	Linear fluid (dielectric constant: 78.4, screening length: 5.74355 Bohr) occupying 0.596130 of unit cell:	Completed after 2 iterations at t[s]:    103.29
SCF: Cycle: 14   F: -445.151247466482914   dF: -1.068e-08   |Residual|: 1.487e-05   |deigs|: 8.829e-06  t[s]:    103.39
	Linear fluid (dielectric constant: 78.4, screening length: 5.74355 Bohr) occupying 0.596133 of unit cell:	Completed after 2 iterations at t[s]:    103.46
	FillingsUpdate:  mu: -0.201432634  nElectrons: 80.000000
	Linear fluid (dielectric constant: 78.4, screening length: 5.74355 Bohr) occupying 0.596130 of unit cell:	Completed after 10 iterations at t[s]:    108.98
SCF: Cycle: 15   F: -445.151247442818601   dF: +2.366e-08   |Residual|: 2.929e-05   |deigs|: 1.345e-05  t[s]:    109.08
	Linear fluid (dielectric constant: 78.4, screening length: 5.74355 Bohr) occupying 0.596133 of unit cell:	Completed after 8 iterations at t[s]:    109.21
	FillingsUpdate:  mu: -0.201440581  nElectrons: 80.000000
	Linear fluid (dielectric constant: 78.4, screening length: 5.74355 Bohr) occupying 0.596131 of unit cell:	Completed after 5 iterations at t[s]:    113.88
SCF: Cycle: 16   F: -445.151247462027982   dF: -1.921e-08   |Residual|: 1.832e-05   |deigs|: 8.885e-06  t[s]:    113.99
	Linear fluid (dielectric constant: 78.4, screening length: 5.74355 Bohr) occupying 0.596131 of unit cell:	Completed after 6 iterations at t[s]:    114.10
	FillingsUpdate:  mu: -0.201427089  nElectrons: 80.000000
	Linear fluid (dielectric constant: 78.4, screening length: 5.74355 Bohr) occupying 0.596129 of unit cell:	Completed after 6 iterations at t[s]:    119.72
SCF: Cycle: 17   F: -445.151247463557979   dF: -1.530e-09   |Residual|: 1.405e-05   |deigs|: 1.552e-05  t[s]:    119.82
	Linear fluid (dielectric constant: 78.4, screening length: 5.74355 Bohr) occupying 0.596131 of unit cell:	Completed after 6 iterations at t[s]:    119.94
	FillingsUpdate:  mu: -0.201449098  nElectrons: 80.000000
	Linear fluid (dielectric constant: 78.4, screening length: 5.74355 Bohr) occupying 0.596132 of unit cell:	Completed after 8 iterations at t[s]:    126.09
SCF: Cycle: 18   F: -445.151247451788493   dF: +1.177e-08   |Residual|: 2.379e-05   |deigs|: 2.154e-05  t[s]:    126.19
	Linear fluid (dielectric constant: 78.4, screening length: 5.74355 Bohr) occupying 0.596131 of unit cell:	Completed after 10 iterations at t[s]:    126.34
	FillingsUpdate:  mu: -0.201434891  nElectrons: 80.000000
	Linear fluid (dielectric constant: 78.4, screening length: 5.74355 Bohr) occupying 0.596130 of unit cell:	Completed after 0 iterations at t[s]:    130.94
SCF: Cycle: 19   F: -445.151247468645465   dF: -1.686e-08   |Residual|: 4.092e-06   |deigs|: 1.411e-05  t[s]:    131.04
	Linear fluid (dielectric constant: 78.4, screening length: 5.74355 Bohr) occupying 0.596130 of unit cell:	Completed after 0 iterations at t[s]:    131.09
	FillingsUpdate:  mu: -0.201434889  nElectrons: 80.000000
	Linear fluid (dielectric constant: 78.4, screening length: 5.74355 Bohr) occupying 0.596130 of unit cell:	Completed after 0 iterations at t[s]:    134.66
SCF: Cycle: 20   F: -445.151247468660245   dF: -1.478e-11   |Residual|: 4.006e-06   |deigs|: 7.271e-07  t[s]:    134.77
	Linear fluid (dielectric constant: 78.4, screening length: 5.74355 Bohr) occupying 0.596130 of unit cell:	Completed after 0 iterations at t[s]:    134.82
	FillingsUpdate:  mu: -0.201434887  nElectrons: 80.000000
	Linear fluid (dielectric constant: 78.4, screening length: 5.74355 Bohr) occupying 0.596130 of unit cell:	Completed after 0 iterations at t[s]:    139.38
SCF: Cycle: 21   F: -445.151247468690485   dF: -3.024e-11   |Residual|: 3.965e-06   |deigs|: 5.516e-07  t[s]:    139.48
SCF: Converged (|Delta E|<1.000000e-08 for 2 iters).


# Ionic positions in lattice coordinates:
ion Pt   0.333333333333333  -0.333333333333333  -0.237676000000000 1
ion Pt  -0.333333333333333   0.333333333333333  -0.118838000000000 1
ion Pt   0.000000000000000   0.000000000000000   0.000000000000000 1
ion Pt   0.333333333333333  -0.333333333333333   0.118838000000000 1
ion Pt  -0.333333333333333   0.333333333333333   0.237676000000000 1


# Forces in Lattice coordinates:
force Pt   0.000000000000000  -0.000000000000000  -0.038544293804390 1
force Pt   0.000000000000000  -0.000000000000000   0.079456432375646 1
force Pt   0.000000000000000  -0.000000000000000   0.000000000000000 1
force Pt  -0.000000000000000  -0.000000000000000  -0.079456432375646 1
force Pt  -0.000000000000000   0.000000000000000   0.038544293804389 1

# Energy components:
   A_diel =       -0.0014137042174098
   Eewald =     4702.9680318706032267
       EH =     5102.5567482427986761
     Eloc =   -10327.4454924898618629
      Enl =       -5.2794472602865756
      Exc =     -141.5594878469799482
 Exc_core =       81.2082896017073352
       KE =      142.4584489949670001
  MuShift =        0.0000000000002076
-------------------------------------
     Etot =     -445.0943225912690764
       TS =        0.0569248774213958
-------------------------------------
        F =     -445.1512474686904852

IonicMinimize: Iter:   0  F: -445.151247468690485  |grad|_K:  8.957e-04  t[s]:    140.02
IonicMinimize: None of the convergence criteria satisfied after 0 iterations.

#--- Lowdin population analysis ---
# oxidation-state Pt +0.009 +0.012 +0.014 +0.012 +0.009


Dumping 'Solvated.fillings' ... done
Dumping 'Solvated.wfns' ... done
Dumping 'Solvated.fluidState' ... done
Dumping 'Solvated.n' ... done
Dumping 'Solvated.eigenvals' ... done
Dumping 'Solvated.Ecomponents' ... done
End date and time: Mon Mar 11 15:48:56 2019  (Duration: 0-0:02:20.36)
Done!
