
*************** JDFTx 1.4.2  ***************

Start date and time: Mon Mar 11 15:43:52 2019
Executable jdftx with command-line: -i Vacuum.in
Running on hosts (process indices):  dhcp-ccc-9638.eduroam.cornell.edu (0)
Divided in process groups (process indices):  0 (0)
Resource initialization completed at t[s]:      0.00
Run totals: 1 processes, 12 threads, 0 GPUs


Input parsed successfully to the following command list (including defaults):

basis kpoint-dependent
coords-type Lattice
core-overlap-check vector
coulomb-interaction Slab 001
coulomb-truncation-embed 0 0 0
davidson-band-ratio 1.1
dump End State IonicPositions ElecDensity
dump-name 111-Vacuum.$VAR
elec-cutoff 20 100
elec-eigen-algo Davidson
elec-ex-corr gga-PBEsol
elec-smearing Fermi 0.01
electronic-minimize  \
	dirUpdateScheme      FletcherReeves \
	linminMethod         DirUpdateRecommended \
	nIterations          100 \
	history              15 \
	knormThreshold       0 \
	energyDiffThreshold  1e-08 \
	nEnergyDiff          2 \
	alphaTstart          1 \
	alphaTmin            1e-10 \
	updateTestStepSize   yes \
	alphaTreduceFactor   0.1 \
	alphaTincreaseFactor 3 \
	nAlphaAdjustMax      3 \
	wolfeEnergy          0.0001 \
	wolfeGradient        0.9 \
	fdTest               no
electronic-scf  \
	nIterations	50 \
	energyDiffThreshold	1e-08 \
	residualThreshold	1e-07 \
	mixFraction	0.5 \
	qMetric	0.8 \
	history	10 \
	nEigSteps	2 \
	eigDiffThreshold	1e-08 \
	mixedVariable	Density \
	qKerker	0.8 \
	qKappa	-1 \
	verbose	no \
	mixFractionMag	1.5
exchange-regularization WignerSeitzTruncated
fluid None
fluid-ex-corr lda-TF lda-PZ
fluid-gummel-loop 10 1.000000e-05
fluid-minimize  \
	dirUpdateScheme      PolakRibiere \
	linminMethod         DirUpdateRecommended \
	nIterations          100 \
	history              15 \
	knormThreshold       0 \
	energyDiffThreshold  0 \
	nEnergyDiff          2 \
	alphaTstart          1 \
	alphaTmin            1e-10 \
	updateTestStepSize   yes \
	alphaTreduceFactor   0.1 \
	alphaTincreaseFactor 3 \
	nAlphaAdjustMax      3 \
	wolfeEnergy          0.0001 \
	wolfeGradient        0.9 \
	fdTest               no
fluid-solvent H2O 55.338 ScalarEOS \
	epsBulk 78.4 \
	pMol 0.92466 \
	epsInf 1.77 \
	Pvap 1.06736e-10 \
	sigmaBulk 4.62e-05 \
	Rvdw 2.61727 \
	Res 1.42
forces-output-coords Positions
ion Pt   0.333333000000000  -0.333333000000000  -0.237676000000000 1
ion Pt  -0.333333000000000   0.333333000000000  -0.118838000000000 1
ion Pt   0.000000000000000   0.000000000000000   0.000000000000000 1
ion Pt   0.333333000000000  -0.333333000000000   0.118838000000000 1
ion Pt  -0.333333000000000   0.333333000000000   0.237676000000000 1
ion-species GBRV/$ID_pbesol.uspp
ion-width 0
ionic-minimize  \
	dirUpdateScheme      L-BFGS \
	linminMethod         DirUpdateRecommended \
	nIterations          0 \
	history              15 \
	knormThreshold       0.0001 \
	energyDiffThreshold  1e-06 \
	nEnergyDiff          2 \
	alphaTstart          1 \
	alphaTmin            1e-10 \
	updateTestStepSize   yes \
	alphaTreduceFactor   0.1 \
	alphaTincreaseFactor 3 \
	nAlphaAdjustMax      3 \
	wolfeEnergy          0.0001 \
	wolfeGradient        0.9 \
	fdTest               no
kpoint   0.000000000000   0.000000000000   0.000000000000  1.00000000000000
kpoint-folding 12 12 1 
latt-move-scale 1 1 1
latt-scale 1 1 1 
lattice Hexagonal 5.23966 36
lattice-minimize  \
	dirUpdateScheme      L-BFGS \
	linminMethod         DirUpdateRecommended \
	nIterations          0 \
	history              15 \
	knormThreshold       0 \
	energyDiffThreshold  1e-06 \
	nEnergyDiff          2 \
	alphaTstart          1 \
	alphaTmin            1e-10 \
	updateTestStepSize   yes \
	alphaTreduceFactor   0.1 \
	alphaTincreaseFactor 3 \
	nAlphaAdjustMax      3 \
	wolfeEnergy          0.0001 \
	wolfeGradient        0.9 \
	fdTest               no
lcao-params -1 1e-06 0.01
pcm-variant GLSSA13
spintype no-spin
subspace-rotation-factor 1 yes
symmetries automatic
symmetry-threshold 0.0001



---------- Setting up symmetries ----------

Found 24 point-group symmetries of the bravais lattice
Found 12 space-group symmetries with basis
Applied RMS atom displacement 2.70575e-06 bohrs to make symmetries exact.

---------- Initializing the Grid ----------
R = 
[    5.23966   -2.61983          0  ]
[          0    4.53768          0  ]
[          0          0         36  ]
unit cell volume = 855.932
G =
[    1.19916   0.692335         -0  ]
[          0    1.38467          0  ]
[          0         -0   0.174533  ]
Minimum fftbox size, Smin = [  24  24  164  ]
Chosen fftbox size, S = [  24  24  168  ]

---------- Initializing tighter grid for wavefunction operations ----------
R = 
[    5.23966   -2.61983          0  ]
[          0    4.53768          0  ]
[          0          0         36  ]
unit cell volume = 855.932
G =
[    1.19916   0.692335         -0  ]
[          0    1.38467          0  ]
[          0         -0   0.174533  ]
Minimum fftbox size, Smin = [  24  24  148  ]
Chosen fftbox size, S = [  24  24  150  ]

---------- Exchange Correlation functional ----------
Initalized PBEsol GGA exchange.
Initalized PBEsol GGA correlation.

---------- Setting up pseudopotentials ----------
Width of ionic core gaussian charges (only for fluid interactions / plotting) set to 0

Reading pseudopotential file '/Users/juanmendezvalderrama/Documents/JDFTX/build/pseudopotentials/GBRV/pt_pbesol.uspp':
  Title: Pt.  Created by USPP 7.3.6 on 22-9-15
  Reference state energy: -104.899005.  16 valence electrons in orbitals:
    |510>  occupation: 6  eigenvalue: -2.158847
    |520>  occupation: 9.5  eigenvalue: -0.336311
    |600>  occupation: 0  eigenvalue: -0.320324
    |610>  occupation: 0  eigenvalue: -0.119800
  lMax: 2  lLocal: 3  QijEcut: 5.5
  6 projectors sampled on a log grid with 745 points:
    l: 0  eig: -0.320324  rCut: 2.45
    l: 0  eig: 1.500000  rCut: 2.45
    l: 1  eig: -2.158847  rCut: 1.6
    l: 1  eig: -0.119800  rCut: 1.6
    l: 2  eig: -0.500000  rCut: 1.6
    l: 2  eig: -0.336311  rCut: 1.6
  Partial core density with radius 1.1
  Transforming core density to a uniform radial grid of dG=0.02 with 1620 points.
  Transforming local potential to a uniform radial grid of dG=0.02 with 1620 points.
  Transforming nonlocal projectors to a uniform radial grid of dG=0.02 with 432 points.
  Transforming density augmentations to a uniform radial grid of dG=0.02 with 1620 points.
  Transforming atomic orbitals to a uniform radial grid of dG=0.02 with 432 points.
  Core radius for overlap checks: 2.45 bohrs.

Initialized 1 species with 5 total atoms.

Folded 1 k-points by 12x12x1 to 144 k-points.

---------- Setting up k-points, bands, fillings ----------
Reduced to 19 k-points under symmetry. 
Computing the number of bands and number of electrons
Calculating initial fillings.
nElectrons:  80.000000   nBands: 60   nStates: 19

----- Setting up reduced wavefunction bases (one per k-point) -----
average nbasis = 3657.132 , ideal nbasis = 3656.607

---------- Setting up coulomb interaction ----------
Setting up double-sized grid for truncated Coulomb potentials:
R = 
[    5.23966   -2.61983          0  ]
[          0    4.53768          0  ]
[          0          0         72  ]
unit cell volume = 1711.86
G =
[    1.19916   0.692335         -0  ]
[          0    1.38467          0  ]
[          0         -0  0.0872665  ]
Chosen fftbox size, S = [  24  24  336  ]
Integer grid location selected as the embedding center:
   Grid: [  0  0  0  ]
   Lattice: [  0  0  0  ]
   Cartesian: [  0  0  0  ]
Constructing Wigner-Seitz cell: 8 faces (6 quadrilaterals, 2 hexagons)
Range-separation parameter for embedded mesh potentials due to point charges: 0.589462 bohrs.
Initialized slab truncation along lattice direction 001

---------- Setting up 2D ewald sum ----------
Optimum gaussian width for ewald sums = 2.908848 bohr.
Real space sums over 289 unit cells with max indices [  8  8  0  ]
Reciprocal space sums over 81 terms with max indices [  4  4  0  ]

---------- Allocating electronic variables ----------
Initializing wave functions:  linear combination of atomic orbitals
Pt pseudo-atom occupations:   s ( 0 )  p ( 6 0 )  d ( 10 )
	FillingsUpdate:  mu: -1.653482975  nElectrons: 80.000000
LCAOMinimize: Iter:   0  F: -443.5672663596192251  |grad|_K:  3.341e-02  alpha:  1.000e+00
LCAOMinimize: 	Step increased F by 1.099364e+01, reducing alpha to 1.410567e-02.
	FillingsUpdate:  mu: -1.093353017  nElectrons: 80.000000
LCAOMinimize: Iter:   1  F: -444.3944293876940606  |grad|_K:  1.566e-02  alpha:  1.411e-02  linmin: -3.034e-01  cgtest:  9.339e-01  t[s]:     11.29
LCAOMinimize: Encountered beta<0, resetting CG.
	FillingsUpdate:  mu: -0.565125585  nElectrons: 80.000000
LCAOMinimize: Iter:   2  F: -444.6406319448184377  |grad|_K:  7.586e-03  alpha:  2.931e-02  linmin:  3.699e-02  cgtest: -8.758e-02  t[s]:     13.94
LCAOMinimize: 	Predicted alpha/alphaT>3.000000, increasing alphaT to 8.794033e-02.
	FillingsUpdate:  mu: -0.240177910  nElectrons: 80.000000
LCAOMinimize: Iter:   3  F: -444.9314855807666618  |grad|_K:  4.455e-03  alpha:  1.530e-01  linmin: -3.345e-03  cgtest:  2.968e-02  t[s]:     17.31
	FillingsUpdate:  mu: -0.228576589  nElectrons: 80.000000
LCAOMinimize: Iter:   4  F: -445.0339189122322523  |grad|_K:  1.780e-03  alpha:  1.445e-01  linmin:  1.290e-02  cgtest: -1.654e-01  t[s]:     19.92
	FillingsUpdate:  mu: -0.091762132  nElectrons: 80.000000
LCAOMinimize: Iter:   5  F: -445.0474604720901084  |grad|_K:  2.978e-03  alpha:  1.249e-01  linmin: -2.707e-04  cgtest: -7.489e-03  t[s]:     22.58
	FillingsUpdate:  mu: -0.188770843  nElectrons: 80.000000
LCAOMinimize: Iter:   6  F: -445.0717934717720254  |grad|_K:  6.924e-04  alpha:  7.612e-02  linmin: -1.400e-03  cgtest: -2.330e-01  t[s]:     25.22
	FillingsUpdate:  mu: -0.196954982  nElectrons: 80.000000
LCAOMinimize: Iter:   7  F: -445.0739564780272985  |grad|_K:  5.335e-04  alpha:  1.267e-01  linmin: -3.495e-04  cgtest: -2.479e-02  t[s]:     27.90
	FillingsUpdate:  mu: -0.222805102  nElectrons: 80.000000
LCAOMinimize: Iter:   8  F: -445.0743150232775633  |grad|_K:  2.571e-04  alpha:  3.528e-02  linmin: -2.445e-03  cgtest:  2.650e-02  t[s]:     30.51
LCAOMinimize: 	Predicted alpha/alphaT>3.000000, increasing alphaT to 1.058446e-01.
	FillingsUpdate:  mu: -0.232538646  nElectrons: 80.000000
LCAOMinimize: Iter:   9  F: -445.0747218414888380  |grad|_K:  1.409e-04  alpha:  1.738e-01  linmin:  4.896e-03  cgtest:  4.046e-03  t[s]:     33.91
	FillingsUpdate:  mu: -0.240564282  nElectrons: 80.000000
LCAOMinimize: Iter:  10  F: -445.0747627044495403  |grad|_K:  1.521e-04  alpha:  5.858e-02  linmin: -6.607e-04  cgtest:  2.078e-02  t[s]:     36.54
LCAOMinimize: 	Predicted alpha/alphaT>3.000000, increasing alphaT to 1.757362e-01.
	FillingsUpdate:  mu: -0.242325461  nElectrons: 80.000000
LCAOMinimize: Iter:  11  F: -445.0749113682937832  |grad|_K:  8.852e-05  alpha:  1.813e-01  linmin:  3.634e-04  cgtest: -6.258e-02  t[s]:     39.93
	FillingsUpdate:  mu: -0.245593313  nElectrons: 80.000000
LCAOMinimize: Iter:  12  F: -445.0749370491808463  |grad|_K:  1.154e-04  alpha:  9.288e-02  linmin:  5.482e-06  cgtest:  3.020e-03  t[s]:     42.56
	FillingsUpdate:  mu: -0.239517049  nElectrons: 80.000000
LCAOMinimize: Iter:  13  F: -445.0749698179071743  |grad|_K:  3.324e-05  alpha:  6.959e-02  linmin: -2.336e-05  cgtest: -1.249e-02  t[s]:     45.20
	FillingsUpdate:  mu: -0.239846864  nElectrons: 80.000000
LCAOMinimize: Iter:  14  F: -445.0749742166956366  |grad|_K:  4.115e-05  alpha:  1.126e-01  linmin: -4.018e-05  cgtest: -3.967e-05  t[s]:     47.82
	FillingsUpdate:  mu: -0.237574757  nElectrons: 80.000000
LCAOMinimize: Iter:  15  F: -445.0749771291380625  |grad|_K:  1.621e-05  alpha:  4.870e-02  linmin:  4.262e-04  cgtest: -4.441e-03  t[s]:     50.47
LCAOMinimize: 	Predicted alpha/alphaT>3.000000, increasing alphaT to 1.461068e-01.
	FillingsUpdate:  mu: -0.237365326  nElectrons: 80.000000
LCAOMinimize: Iter:  16  F: -445.0749790279481886  |grad|_K:  2.163e-05  alpha:  2.046e-01  linmin: -4.150e-05  cgtest:  3.918e-04  t[s]:     53.84
	FillingsUpdate:  mu: -0.236359065  nElectrons: 80.000000
LCAOMinimize: Iter:  17  F: -445.0749797832002628  |grad|_K:  1.406e-05  alpha:  4.567e-02  linmin:  1.376e-04  cgtest: -3.186e-03  t[s]:     56.54
LCAOMinimize: 	Predicted alpha/alphaT>3.000000, increasing alphaT to 1.370126e-01.
	FillingsUpdate:  mu: -0.237057738  nElectrons: 80.000000
LCAOMinimize: Iter:  18  F: -445.0749809197160403  |grad|_K:  9.165e-06  alpha:  1.628e-01  linmin:  3.792e-05  cgtest:  3.005e-03  t[s]:     59.91
	FillingsUpdate:  mu: -0.236816192  nElectrons: 80.000000
LCAOMinimize: Iter:  19  F: -445.0749810809048199  |grad|_K:  8.170e-06  alpha:  5.428e-02  linmin: -4.255e-05  cgtest:  4.531e-04  t[s]:     62.53
	FillingsUpdate:  mu: -0.237323794  nElectrons: 80.000000
LCAOMinimize: Iter:  20  F: -445.0749813018323380  |grad|_K:  3.225e-06  alpha:  9.357e-02  linmin: -7.916e-04  cgtest:  2.445e-03  t[s]:     65.16
LCAOMinimize: Converged (|Delta F|<1.000000e-06 for 2 iters).


---- Citations for features of the code used in this run ----

   Software package:
      R. Sundararaman, K. Letchworth-Weaver, K.A. Schwarz, D. Gunceler, Y. Ozhabes and T.A. Arias, 'JDFTx: software for joint density-functional theory', SoftwareX 6, 278 (2017)

   gga-PBEsol exchange-correlation functional:
      J.P. Perdew et al., Phys. Rev. Lett. 100, 136406 (2008)

   Pseudopotentials:
      KF Garrity, JW Bennett, KM Rabe and D Vanderbilt, Comput. Mater. Sci. 81, 446 (2014)

   Truncated Coulomb potentials:
      R. Sundararaman and T.A. Arias, Phys. Rev. B 87, 165122 (2013)

This list may not be complete. Please suggest additional citations or
report any other bugs at https://github.com/shankar1729/jdftx/issues

Initialization completed successfully at t[s]:     65.50

	FillingsUpdate:  mu: -0.237323794  nElectrons: 80.000000

-------- Electronic minimization -----------
Will mix electronic density at each iteration.
	FillingsUpdate:  mu: -0.237323794  nElectrons: 80.000000
	FillingsUpdate:  mu: -0.238844191  nElectrons: 80.000000
SCF: Cycle:  0   F: -445.145341821280965   dF: -7.036e-02   |Residual|: 5.993e-02   |deigs|: 6.160e-02  t[s]:     74.53
	FillingsUpdate:  mu: -0.234733334  nElectrons: 80.000000
SCF: Cycle:  1   F: -445.142277699135491   dF: +3.064e-03   |Residual|: 3.002e-02   |deigs|: 9.897e-03  t[s]:     81.05
	FillingsUpdate:  mu: -0.233564554  nElectrons: 80.000000
SCF: Cycle:  2   F: -445.135028343811996   dF: +7.249e-03   |Residual|: 3.621e-02   |deigs|: 3.735e-03  t[s]:     87.60
	FillingsUpdate:  mu: -0.233115852  nElectrons: 80.000000
SCF: Cycle:  3   F: -445.147782351605827   dF: -1.275e-02   |Residual|: 1.117e-02   |deigs|: 2.111e-03  t[s]:     94.32
	FillingsUpdate:  mu: -0.232154872  nElectrons: 80.000000
SCF: Cycle:  4   F: -445.148703398689918   dF: -9.210e-04   |Residual|: 1.028e-02   |deigs|: 1.056e-03  t[s]:    101.54
	FillingsUpdate:  mu: -0.231434845  nElectrons: 80.000000
SCF: Cycle:  5   F: -445.149098165072871   dF: -3.948e-04   |Residual|: 4.316e-03   |deigs|: 7.903e-04  t[s]:    108.05
	FillingsUpdate:  mu: -0.228769257  nElectrons: 80.000000
SCF: Cycle:  6   F: -445.149460891338549   dF: -3.627e-04   |Residual|: 3.183e-03   |deigs|: 2.528e-03  t[s]:    114.28
	FillingsUpdate:  mu: -0.223418138  nElectrons: 80.000000
SCF: Cycle:  7   F: -445.149795927051798   dF: -3.350e-04   |Residual|: 1.887e-03   |deigs|: 5.166e-03  t[s]:    120.76
	FillingsUpdate:  mu: -0.218705508  nElectrons: 80.000000
SCF: Cycle:  8   F: -445.149871252085973   dF: -7.533e-05   |Residual|: 1.078e-03   |deigs|: 4.630e-03  t[s]:    127.13
	FillingsUpdate:  mu: -0.214490429  nElectrons: 80.000000
SCF: Cycle:  9   F: -445.149871278525382   dF: -2.644e-08   |Residual|: 7.527e-04   |deigs|: 4.243e-03  t[s]:    133.31
	FillingsUpdate:  mu: -0.211554367  nElectrons: 80.000000
SCF: Cycle: 10   F: -445.149873391185054   dF: -2.113e-06   |Residual|: 3.087e-04   |deigs|: 3.057e-03  t[s]:    139.85
	FillingsUpdate:  mu: -0.211351764  nElectrons: 80.000000
SCF: Cycle: 11   F: -445.149873925424515   dF: -5.342e-07   |Residual|: 1.296e-04   |deigs|: 4.031e-04  t[s]:    145.66
	FillingsUpdate:  mu: -0.211139434  nElectrons: 80.000000
SCF: Cycle: 12   F: -445.149873969251928   dF: -4.383e-08   |Residual|: 3.242e-05   |deigs|: 4.766e-04  t[s]:    151.29
	FillingsUpdate:  mu: -0.211091299  nElectrons: 80.000000
SCF: Cycle: 13   F: -445.149873974484990   dF: -5.233e-09   |Residual|: 1.401e-05   |deigs|: 1.471e-04  t[s]:    156.99
	FillingsUpdate:  mu: -0.211082264  nElectrons: 80.000000
SCF: Cycle: 14   F: -445.149873975801995   dF: -1.317e-09   |Residual|: 3.155e-06   |deigs|: 6.706e-05  t[s]:    163.07
SCF: Converged (|Delta E|<1.000000e-08 for 2 iters).


# Ionic positions in lattice coordinates:
ion Pt   0.333333333333333  -0.333333333333333  -0.237676000000000 1
ion Pt  -0.333333333333333   0.333333333333333  -0.118838000000000 1
ion Pt   0.000000000000000   0.000000000000000   0.000000000000000 1
ion Pt   0.333333333333333  -0.333333333333333   0.118838000000000 1
ion Pt  -0.333333333333333   0.333333333333333   0.237676000000000 1


# Forces in Lattice coordinates:
force Pt   0.000000000000000  -0.000000000000000  -0.039780411368526 1
force Pt   0.000000000000000  -0.000000000000000   0.080239721755512 1
force Pt  -0.000000000000000   0.000000000000000   0.000000000000000 1
force Pt  -0.000000000000000  -0.000000000000000  -0.080239721755512 1
force Pt   0.000000000000000  -0.000000000000000   0.039780411372163 1

# Energy components:
   Eewald =    -6304.7635139670255739
       EH =    -5929.9927986738784966
     Eloc =    11712.8388080163458653
      Enl =       -5.2799426928750135
      Exc =     -141.5574401898730059
 Exc_core =       81.2082896017073352
       KE =      142.4536843992719071
-------------------------------------
     Etot =     -445.0929135063270223
       TS =        0.0569604694749979
-------------------------------------
        F =     -445.1498739758019951

IonicMinimize: Iter:   0  F: -445.149873975801995  |grad|_K:  9.084e-04  t[s]:    163.57
IonicMinimize: None of the convergence criteria satisfied after 0 iterations.

#--- Lowdin population analysis ---
# oxidation-state Pt +0.008 +0.012 +0.015 +0.012 +0.008


Dumping '111-Vacuum.fillings' ... done
Dumping '111-Vacuum.wfns' ... done
Dumping '111-Vacuum.ionpos' ... done
Dumping '111-Vacuum.n' ... done
Dumping '111-Vacuum.eigenvals' ... done
End date and time: Mon Mar 11 15:46:36 2019  (Duration: 0-0:02:43.92)
Done!
