CRYSTAL
PRIMVEC
  2.772709   0.000000   0.000000
 -1.386354   2.401237   0.000000
  0.000000   0.000000  19.050379
PRIMCOORD
5 1
78   1.386354  -0.800412  -4.527818
78  -1.386354   0.800412  -2.263909
78   0.000000   0.000000   0.000000
78   1.386354  -0.800412   2.263909
78  -1.386354   0.800412   4.527818
BEGIN_BLOCK_DATAGRID_3D
 n
 BEGIN_DATAGRID_3D_n
  25 25 169
    0.000000   0.000000   0.000000
    2.772709   0.000000   0.000000
   -1.386354   2.401237   0.000000
    0.000000   0.000000  19.050379
  -1.665575e+00 -1.096721e+00 1.089552e-01 1.007417e+00 1.160303e+00 8.423527e-01 4.928271e-01 2.773525e-01 1.627333e-01 1.024571e-01 7.361687e-02 6.028210e-02 5.656096e-02 6.028210e-02 7.361687e-02 1.024571e-01 1.627333e-01 2.773525e-01 4.928271e-01 8.423527e-01 1.160303e+00 1.007417e+00 1.089552e-01 -1.096721e+00 -1.665575e+00
  -1.096721e+00 -1.096721e+00 -2.205564e-01 7.694892e-01 1.182524e+00 9.998368e-01 6.299583e-01 3.560458e-01 2.055623e-01 1.245710e-01 8.394679e-02 6.469100e-02 5.678124e-02 5.678124e-02 6.469100e-02 8.394679e-02 1.245710e-01 2.055623e-01 3.560458e-01 6.299583e-01 9.998368e-01 1.182524e+00 7.694892e-01 -2.205564e-01 -1.096721e+00
  1.089552e-01 -2.205564e-01 1.089552e-01 7.694892e-01 1.166545e+00 1.073622e+00 7.298807e-01 4.265028e-01 2.461631e-01 1.473479e-01 9.503360e-02 6.958823e-02 5.754746e-02 5.413903e-02 5.754746e-02 6.958823e-02 9.503360e-02 1.473479e-01 2.461631e-01 4.265028e-01 7.298807e-01 1.073622e+00 1.166545e+00 7.694892e-01 1.089552e-01
  1.007417e+00 7.694892e-01 7.694892e-01 1.007417e+00 1.182524e+00 1.073622e+00 7.659000e-01 4.685275e-01 2.759463e-01 1.664158e-01 1.053610e-01 7.432529e-02 5.876857e-02 5.220021e-02 5.220021e-02 5.876857e-02 7.432529e-02 1.053610e-01 1.664158e-01 2.759463e-01 4.685275e-01 7.659000e-01 1.073622e+00 1.182524e+00 1.007417e+00
  1.160303e+00 1.182524e+00 1.166545e+00 1.182524e+00 1.160303e+00 9.998368e-01 7.298807e-01 4.685275e-01 2.870076e-01 1.773713e-01 1.127204e-01 7.821686e-02 5.999357e-02 5.109818e-02 4.824998e-02 5.109818e-02 5.999357e-02 7.821686e-02 1.127204e-01 1.773713e-01 2.870076e-01 4.685275e-01 7.298807e-01 9.998368e-01 1.160303e+00
  8.423527e-01 9.998368e-01 1.073622e+00 1.073622e+00 9.998368e-01 8.423527e-01 6.299583e-01 4.265028e-01 2.759463e-01 1.773713e-01 1.154070e-01 8.041252e-02 6.099469e-02 5.053153e-02 4.576336e-02 4.576336e-02 5.053153e-02 6.099469e-02 8.041252e-02 1.154070e-01 1.773713e-01 2.759463e-01 4.265028e-01 6.299583e-01 8.423527e-01
  4.928271e-01 6.299583e-01 7.298807e-01 7.659000e-01 7.298807e-01 6.299583e-01 4.928271e-01 3.560458e-01 2.461631e-01 1.664158e-01 1.127204e-01 8.041252e-02 6.135447e-02 5.033832e-02 4.436079e-02 4.247082e-02 4.436079e-02 5.033832e-02 6.135447e-02 8.041252e-02 1.127204e-01 1.664158e-01 2.461631e-01 3.560458e-01 4.928271e-01
  2.773525e-01 3.560458e-01 4.265028e-01 4.685275e-01 4.685275e-01 4.265028e-01 3.560458e-01 2.773525e-01 2.055623e-01 1.473479e-01 1.053610e-01 7.821686e-02 6.099469e-02 5.033832e-02 4.393674e-02 4.088992e-02 4.088992e-02 4.393674e-02 5.033832e-02 6.099469e-02 7.821686e-02 1.053610e-01 1.473479e-01 2.055623e-01 2.773525e-01
  1.627333e-01 2.055623e-01 2.461631e-01 2.759463e-01 2.870076e-01 2.759463e-01 2.461631e-01 2.055623e-01 1.627333e-01 1.245710e-01 9.503360e-02 7.432529e-02 5.999357e-02 5.053153e-02 4.436079e-02 4.088992e-02 3.975896e-02 4.088992e-02 4.436079e-02 5.053153e-02 5.999357e-02 7.432529e-02 9.503360e-02 1.245710e-01 1.627333e-01
  1.024571e-01 1.245710e-01 1.473479e-01 1.664158e-01 1.773713e-01 1.773713e-01 1.664158e-01 1.473479e-01 1.245710e-01 1.024571e-01 8.394679e-02 6.958823e-02 5.876857e-02 5.109818e-02 4.576336e-02 4.247082e-02 4.088992e-02 4.088992e-02 4.247082e-02 4.576336e-02 5.109818e-02 5.876857e-02 6.958823e-02 8.394679e-02 1.024571e-01
  7.361687e-02 8.394679e-02 9.503360e-02 1.053610e-01 1.127204e-01 1.154070e-01 1.127204e-01 1.053610e-01 9.503360e-02 8.394679e-02 7.361687e-02 6.469100e-02 5.754746e-02 5.220021e-02 4.824998e-02 4.576336e-02 4.436079e-02 4.393674e-02 4.436079e-02 4.576336e-02 4.824998e-02 5.220021e-02 5.754746e-02 6.469100e-02 7.361687e-02
  6.028210e-02 6.469100e-02 6.958823e-02 7.432529e-02 7.821686e-02 8.041252e-02 8.041252e-02 7.821686e-02 7.432529e-02 6.958823e-02 6.469100e-02 6.028210e-02 5.678124e-02 5.413903e-02 5.220021e-02 5.109818e-02 5.053153e-02 5.033832e-02 5.033832e-02 5.053153e-02 5.109818e-02 5.220021e-02 5.413903e-02 5.678124e-02 6.028210e-02
  5.656096e-02 5.678124e-02 5.754746e-02 5.876857e-02 5.999357e-02 6.099469e-02 6.135447e-02 6.099469e-02 5.999357e-02 5.876857e-02 5.754746e-02 5.678124e-02 5.656096e-02 5.678124e-02 5.754746e-02 5.876857e-02 5.999357e-02 6.099469e-02 6.135447e-02 6.099469e-02 5.999357e-02 5.876857e-02 5.754746e-02 5.678124e-02 5.656096e-02
  6.028210e-02 5.678124e-02 5.413903e-02 5.220021e-02 5.109818e-02 5.053153e-02 5.033832e-02 5.033832e-02 5.053153e-02 5.109818e-02 5.220021e-02 5.413903e-02 5.678124e-02 6.028210e-02 6.469100e-02 6.958823e-02 7.432529e-02 7.821686e-02 8.041252e-02 8.041252e-02 7.821686e-02 7.432529e-02 6.958823e-02 6.469100e-02 6.028210e-02
  7.361687e-02 6.469100e-02 5.754746e-02 5.220021e-02 4.824998e-02 4.576336e-02 4.436079e-02 4.393674e-02 4.436079e-02 4.576336e-02 4.824998e-02 5.220021e-02 5.754746e-02 6.469100e-02 7.361687e-02 8.394679e-02 9.503360e-02 1.053610e-01 1.127204e-01 1.154070e-01 1.127204e-01 1.053610e-01 9.503360e-02 8.394679e-02 7.361687e-02
  1.024571e-01 8.394679e-02 6.958823e-02 5.876857e-02 5.109818e-02 4.576336e-02 4.247082e-02 4.088992e-02 4.088992e-02 4.247082e-02 4.576336e-02 5.109818e-02 5.876857e-02 6.958823e-02 8.394679e-02 1.024571e-01 1.245710e-01 1.473479e-01 1.664158e-01 1.773713e-01 1.773713e-01 1.664158e-01 1.473479e-01 1.245710e-01 1.024571e-01
  1.627333e-01 1.245710e-01 9.503360e-02 7.432529e-02 5.999357e-02 5.053153e-02 4.436079e-02 4.088992e-02 3.975896e-02 4.088992e-02 4.436079e-02 5.053153e-02 5.999357e-02 7.432529e-02 9.503360e-02 1.245710e-01 1.627333e-01 2.055623e-01 2.461631e-01 2.759463e-01 2.870076e-01 2.759463e-01 2.461631e-01 2.055623e-01 1.627333e-01
  2.773525e-01 2.055623e-01 1.473479e-01 1.053610e-01 7.821686e-02 6.099469e-02 5.033832e-02 4.393674e-02 4.088992e-02 4.088992e-02 4.393674e-02 5.033832e-02 6.099469e-02 7.821686e-02 1.053610e-01 1.473479e-01 2.055623e-01 2.773525e-01 3.560458e-01 4.265028e-01 4.685275e-01 4.685275e-01 4.265028e-01 3.560458e-01 2.773525e-01
  4.928271e-01 3.560458e-01 2.461631e-01 1.664158e-01 1.127204e-01 8.041252e-02 6.135447e-02 5.033832e-02 4.436079e-02 4.247082e-02 4.436079e-02 5.033832e-02 6.135447e-02 8.041252e-02 1.127204e-01 1.664158e-01 2.461631e-01 3.560458e-01 4.928271e-01 6.299583e-01 7.298807e-01 7.659000e-01 7.298807e-01 6.299583e-01 4.928271e-01
  8.423527e-01 6.299583e-01 4.265028e-01 2.759463e-01 1.773713e-01 1.154070e-01 8.041252e-02 6.099469e-02 5.053153e-02 4.576336e-02 4.576336e-02 5.053153e-02 6.099469e-02 8.041252e-02 1.154070e-01 1.773713e-01 2.759463e-01 4.265028e-01 6.299583e-01 8.423527e-01 9.998368e-01 1.073622e+00 1.073622e+00 9.998368e-01 8.423527e-01
  1.160303e+00 9.998368e-01 7.298807e-01 4.685275e-01 2.870076e-01 1.773713e-01 1.127204e-01 7.821686e-02 5.999357e-02 5.109818e-02 4.824998e-02 5.109818e-02 5.999357e-02 7.821686e-02 1.127204e-01 1.773713e-01 2.870076e-01 4.685275e-01 7.298807e-01 9.998368e-01 1.160303e+00 1.182524e+00 1.166545e+00 1.182524e+00 1.160303e+00
  1.007417e+00 1.182524e+00 1.073622e+00 7.659000e-01 4.685275e-01 2.759463e-01 1.664158e-01 1.053610e-01 7.432529e-02 5.876857e-02 5.220021e-02 5.220021e-02 5.876857e-02 7.432529e-02 1.053610e-01 1.664158e-01 2.759463e-01 4.685275e-01 7.659000e-01 1.073622e+00 1.182524e+00 1.007417e+00 7.694892e-01 7.694892e-01 1.007417e+00
  1.089552e-01 7.694892e-01 1.166545e+00 1.073622e+00 7.298807e-01 4.265028e-01 2.461631e-01 1.473479e-01 9.503360e-02 6.958823e-02 5.754746e-02 5.413903e-02 5.754746e-02 6.958823e-02 9.503360e-02 1.473479e-01 2.461631e-01 4.265028e-01 7.298807e-01 1.073622e+00 1.166545e+00 7.694892e-01 1.089552e-01 -2.205564e-01 1.089552e-01
  -1.096721e+00 -2.205564e-01 7.694892e-01 1.182524e+00 9.998368e-01 6.299583e-01 3.560458e-01 2.055623e-01 1.245710e-01 8.394679e-02 6.469100e-02 5.678124e-02 5.678124e-02 6.469100e-02 8.394679e-02 1.245710e-01 2.055623e-01 3.560458e-01 6.299583e-01 9.998368e-01 1.182524e+00 7.694892e-01 -2.205564e-01 -1.096721e+00 -1.096721e+00
  -1.665575e+00 -1.096721e+00 1.089552e-01 1.007417e+00 1.160303e+00 8.423527e-01 4.928271e-01 2.773525e-01 1.627333e-01 1.024571e-01 7.361687e-02 6.028210e-02 5.656096e-02 6.028210e-02 7.361687e-02 1.024571e-01 1.627333e-01 2.773525e-01 4.928271e-01 8.423527e-01 1.160303e+00 1.007417e+00 1.089552e-01 -1.096721e+00 -1.665575e+00
  -1.115811e+00 -6.341245e-01 3.715929e-01 1.082598e+00 1.139615e+00 8.067828e-01 4.709921e-01 2.671435e-01 1.576827e-01 9.999593e-02 7.225555e-02 5.934180e-02 5.571495e-02 5.934180e-02 7.225555e-02 9.999593e-02 1.576827e-01 2.671435e-01 4.709921e-01 8.067828e-01 1.139615e+00 1.082598e+00 3.715929e-01 -6.341245e-01 -1.115811e+00
  -6.341245e-01 -6.341245e-01 1.029289e-01 9.097064e-01 1.195661e+00 9.702669e-01 6.050625e-01 3.433672e-01 1.994328e-01 1.214292e-01 8.229244e-02 6.358259e-02 5.586929e-02 5.586929e-02 6.358259e-02 8.229244e-02 1.214292e-01 1.994328e-01 3.433672e-01 6.050625e-01 9.702669e-01 1.195661e+00 9.097064e-01 1.029289e-01 -6.341245e-01
  3.715929e-01 9.635587e-02 3.715929e-01 9.097064e-01 1.196338e+00 1.052335e+00 7.050549e-01 4.122561e-01 2.393569e-01 1.437185e-01 9.311327e-02 6.832334e-02 5.655669e-02 5.317940e-02 5.655669e-02 6.832334e-02 9.311327e-02 1.437185e-01 2.393569e-01 4.122561e-01 7.050549e-01 1.052335e+00 1.196338e+00 9.097064e-01 3.715929e-01
  1.082598e+00 8.958405e-01 8.958405e-01 1.082598e+00 1.195661e+00 1.052335e+00 7.417344e-01 4.537541e-01 2.687897e-01 1.625588e-01 1.032435e-01 7.297258e-02 5.772180e-02 5.125369e-02 5.125369e-02 5.772180e-02 7.297258e-02 1.032435e-01 1.625588e-01 2.687897e-01 4.537541e-01 7.417344e-01 1.052335e+00 1.195661e+00 1.082598e+00
  1.139615e+00 1.179572e+00 1.172802e+00 1.179572e+00 1.139615e+00 9.702669e-01 7.050549e-01 4.537541e-01 2.797516e-01 1.734568e-01 1.105086e-01 7.682595e-02 5.893134e-02 5.014107e-02 4.731393e-02 5.014107e-02 5.893134e-02 7.682595e-02 1.105086e-01 1.734568e-01 2.797516e-01 4.537541e-01 7.050549e-01 9.702669e-01 1.139615e+00
  8.067828e-01 9.577921e-01 1.029630e+00 1.029630e+00 9.577921e-01 8.067828e-01 6.050625e-01 4.122561e-01 2.687897e-01 1.734568e-01 1.131729e-01 7.900695e-02 5.991196e-02 4.953076e-02 4.478332e-02 4.478332e-02 4.953076e-02 5.991196e-02 7.900695e-02 1.131729e-01 1.734568e-01 2.687897e-01 4.122561e-01 6.050625e-01 8.067828e-01
  4.709921e-01 5.978851e-01 6.897860e-01 7.228352e-01 6.897860e-01 5.978851e-01 4.709921e-01 3.433672e-01 2.393569e-01 1.625588e-01 1.105086e-01 7.900695e-02 6.026589e-02 4.931343e-02 4.337979e-02 4.150288e-02 4.337979e-02 4.931343e-02 6.026589e-02 7.900695e-02 1.105086e-01 1.625588e-01 2.393569e-01 3.433672e-01 4.709921e-01
  2.671435e-01 3.399526e-01 4.042177e-01 4.422225e-01 4.422225e-01 4.042177e-01 3.399526e-01 2.671435e-01 1.994328e-01 1.437185e-01 1.032435e-01 7.682595e-02 5.991196e-02 4.931343e-02 4.295844e-02 3.994565e-02 3.994565e-02 4.295844e-02 4.931343e-02 5.991196e-02 7.682595e-02 1.032435e-01 1.437185e-01 1.994328e-01 2.671435e-01
  1.576827e-01 1.979317e-01 2.355731e-01 2.628085e-01 2.728402e-01 2.628085e-01 2.355731e-01 1.979317e-01 1.576827e-01 1.214292e-01 9.311327e-02 7.297258e-02 5.893134e-02 4.953076e-02 4.337979e-02 3.994565e-02 3.881997e-02 3.994565e-02 4.337979e-02 4.953076e-02 5.893134e-02 7.297258e-02 9.311327e-02 1.214292e-01 1.576827e-01
  9.999593e-02 1.208818e-01 1.421664e-01 1.598294e-01 1.699181e-01 1.699181e-01 1.598294e-01 1.421664e-01 1.208818e-01 9.999593e-02 8.229244e-02 6.832334e-02 5.772180e-02 5.014107e-02 4.478332e-02 4.150288e-02 3.994565e-02 3.994565e-02 4.150288e-02 4.478332e-02 5.014107e-02 5.772180e-02 6.832334e-02 8.229244e-02 9.999593e-02
  7.225555e-02 8.217732e-02 9.265652e-02 1.022884e-01 1.090911e-01 1.115675e-01 1.090911e-01 1.022884e-01 9.265652e-02 8.217732e-02 7.225555e-02 6.358259e-02 5.655669e-02 5.125369e-02 4.731393e-02 4.478332e-02 4.337979e-02 4.295844e-02 4.337979e-02 4.478332e-02 4.731393e-02 5.125369e-02 5.655669e-02 6.358259e-02 7.225555e-02
  5.934180e-02 6.365938e-02 6.836560e-02 7.287244e-02 7.654476e-02 7.859805e-02 7.859805e-02 7.654476e-02 7.287244e-02 6.836560e-02 6.365938e-02 5.934180e-02 5.586929e-02 5.317940e-02 5.125369e-02 5.014107e-02 4.953076e-02 4.931343e-02 4.931343e-02 4.953076e-02 5.014107e-02 5.125369e-02 5.317940e-02 5.586929e-02 5.934180e-02
  5.571495e-02 5.601853e-02 5.681407e-02 5.802851e-02 5.923278e-02 6.018318e-02 6.052099e-02 6.018318e-02 5.923278e-02 5.802851e-02 5.681407e-02 5.601853e-02 5.571495e-02 5.586929e-02 5.655669e-02 5.772180e-02 5.893134e-02 5.991196e-02 6.026589e-02 5.991196e-02 5.893134e-02 5.772180e-02 5.655669e-02 5.586929e-02 5.571495e-02
  5.934180e-02 5.601853e-02 5.349919e-02 5.172148e-02 5.071229e-02 5.015644e-02 4.996051e-02 4.996051e-02 5.015644e-02 5.071229e-02 5.172148e-02 5.349919e-02 5.601853e-02 5.934180e-02 6.358259e-02 6.832334e-02 7.297258e-02 7.682595e-02 7.900695e-02 7.900695e-02 7.682595e-02 7.297258e-02 6.832334e-02 6.358259e-02 5.934180e-02
  7.225555e-02 6.365938e-02 5.681407e-02 5.172148e-02 4.796702e-02 4.556278e-02 4.423268e-02 4.383450e-02 4.423268e-02 4.556278e-02 4.796702e-02 5.172148e-02 5.681407e-02 6.365938e-02 7.225555e-02 8.229244e-02 9.311327e-02 1.032435e-01 1.105086e-01 1.131729e-01 1.105086e-01 1.032435e-01 9.311327e-02 8.229244e-02 7.225555e-02
  9.999593e-02 8.217732e-02 6.836560e-02 5.802851e-02 5.071229e-02 4.556278e-02 4.241901e-02 4.092813e-02 4.092813e-02 4.241901e-02 4.556278e-02 5.071229e-02 5.802851e-02 6.836560e-02 8.217732e-02 9.999593e-02 1.214292e-01 1.437185e-01 1.625588e-01 1.734568e-01 1.734568e-01 1.625588e-01 1.437185e-01 1.214292e-01 9.999593e-02
  1.576827e-01 1.208818e-01 9.265652e-02 7.287244e-02 5.923278e-02 5.015644e-02 4.423268e-02 4.092813e-02 3.984461e-02 4.092813e-02 4.423268e-02 5.015644e-02 5.923278e-02 7.287244e-02 9.265652e-02 1.208818e-01 1.576827e-01 1.994328e-01 2.393569e-01 2.687897e-01 2.797516e-01 2.687897e-01 2.393569e-01 1.994328e-01 1.576827e-01
  2.671435e-01 1.979317e-01 1.421664e-01 1.022884e-01 7.654476e-02 6.018318e-02 4.996051e-02 4.383450e-02 4.092813e-02 4.092813e-02 4.383450e-02 4.996051e-02 6.018318e-02 7.654476e-02 1.022884e-01 1.421664e-01 1.979317e-01 2.671435e-01 3.433672e-01 4.122561e-01 4.537541e-01 4.537541e-01 4.122561e-01 3.433672e-01 2.671435e-01
  4.709921e-01 3.399526e-01 2.355731e-01 1.598294e-01 1.090911e-01 7.859805e-02 6.052099e-02 4.996051e-02 4.423268e-02 4.241901e-02 4.423268e-02 4.996051e-02 6.052099e-02 7.859805e-02 1.090911e-01 1.598294e-01 2.355731e-01 3.399526e-01 4.709921e-01 6.050625e-01 7.050549e-01 7.417344e-01 7.050549e-01 6.050625e-01 4.709921e-01
  8.067828e-01 5.978851e-01 4.042177e-01 2.628085e-01 1.699181e-01 1.115675e-01 7.859805e-02 6.018318e-02 5.015644e-02 4.556278e-02 4.556278e-02 5.015644e-02 6.018318e-02 7.859805e-02 1.115675e-01 1.699181e-01 2.628085e-01 4.042177e-01 5.978851e-01 8.067828e-01 9.702669e-01 1.052335e+00 1.052335e+00 9.702669e-01 8.067828e-01
  1.139615e+00 9.577921e-01 6.897860e-01 4.422225e-01 2.728402e-01 1.699181e-01 1.090911e-01 7.654476e-02 5.923278e-02 5.071229e-02 4.796702e-02 5.071229e-02 5.923278e-02 7.654476e-02 1.090911e-01 1.699181e-01 2.728402e-01 4.422225e-01 6.897860e-01 9.577921e-01 1.139615e+00 1.195661e+00 1.196338e+00 1.195661e+00 1.139615e+00
  1.082598e+00 1.179572e+00 1.029630e+00 7.228352e-01 4.422225e-01 2.628085e-01 1.598294e-01 1.022884e-01 7.287244e-02 5.802851e-02 5.172148e-02 5.172148e-02 5.802851e-02 7.287244e-02 1.022884e-01 1.598294e-01 2.628085e-01 4.422225e-01 7.228352e-01 1.029630e+00 1.179572e+00 1.082598e+00 9.097064e-01 9.097064e-01 1.082598e+00
  3.715929e-01 8.958405e-01 1.172802e+00 1.029630e+00 6.897860e-01 4.042177e-01 2.355731e-01 1.421664e-01 9.265652e-02 6.836560e-02 5.681407e-02 5.349919e-02 5.681407e-02 6.836560e-02 9.265652e-02 1.421664e-01 2.355731e-01 4.042177e-01 6.897860e-01 1.029630e+00 1.172802e+00 8.958405e-01 3.715929e-01 1.029289e-01 3.715929e-01
  -6.341245e-01 9.635587e-02 8.958405e-01 1.179572e+00 9.577921e-01 5.978851e-01 3.399526e-01 1.979317e-01 1.208818e-01 8.217732e-02 6.365938e-02 5.601853e-02 5.601853e-02 6.365938e-02 8.217732e-02 1.208818e-01 1.979317e-01 3.399526e-01 5.978851e-01 9.577921e-01 1.179572e+00 8.958405e-01 9.635587e-02 -6.341245e-01 -6.341245e-01
  -1.115811e+00 -6.341245e-01 3.715929e-01 1.082598e+00 1.139615e+00 8.067828e-01 4.709921e-01 2.671435e-01 1.576827e-01 9.999593e-02 7.225555e-02 5.934180e-02 5.571495e-02 5.934180e-02 7.225555e-02 9.999593e-02 1.576827e-01 2.671435e-01 4.709921e-01 8.067828e-01 1.139615e+00 1.082598e+00 3.715929e-01 -6.341245e-01 -1.115811e+00
  6.346620e-02 3.434044e-01 8.916853e-01 1.188382e+00 1.050141e+00 7.044756e-01 4.121440e-01 2.393096e-01 1.438167e-01 9.320569e-02 6.847777e-02 5.670049e-02 5.335706e-02 5.670049e-02 6.847777e-02 9.320569e-02 1.438167e-01 2.393096e-01 4.121440e-01 7.044756e-01 1.050141e+00 1.188382e+00 8.916853e-01 3.434044e-01 6.346620e-02
  3.434044e-01 3.434044e-01 7.554025e-01 1.145170e+00 1.159660e+00 8.624307e-01 5.289195e-01 3.055422e-01 1.809246e-01 1.121596e-01 7.750864e-02 6.048660e-02 5.338969e-02 5.338969e-02 6.048660e-02 7.750864e-02 1.121596e-01 1.809246e-01 3.055422e-01 5.289195e-01 8.624307e-01 1.159660e+00 1.145170e+00 7.554025e-01 3.434044e-01
  8.916853e-01 7.452724e-01 8.916853e-01 1.145170e+00 1.188351e+00 9.495055e-01 6.183342e-01 3.652542e-01 2.165807e-01 1.320047e-01 8.721014e-02 6.475011e-02 5.397147e-02 5.076119e-02 5.397147e-02 6.475011e-02 8.721014e-02 1.320047e-01 2.165807e-01 3.652542e-01 6.183342e-01 9.495055e-01 1.188351e+00 1.145170e+00 8.916853e-01
  1.188382e+00 1.123879e+00 1.123879e+00 1.188382e+00 1.159660e+00 9.495055e-01 6.518422e-01 4.014765e-01 2.428365e-01 1.488958e-01 9.627167e-02 6.898698e-02 5.495126e-02 4.889310e-02 4.889310e-02 5.495126e-02 6.898698e-02 9.627167e-02 1.488958e-01 2.428365e-01 4.014765e-01 6.518422e-01 9.495055e-01 1.159660e+00 1.188382e+00
  1.050141e+00 1.135350e+00 1.152701e+00 1.135350e+00 1.050141e+00 8.624307e-01 6.183342e-01 4.014765e-01 2.525645e-01 1.587128e-01 1.028082e-01 7.246836e-02 5.599771e-02 4.778890e-02 4.512569e-02 4.778890e-02 5.599771e-02 7.246836e-02 1.028082e-01 1.587128e-01 2.525645e-01 4.014765e-01 6.183342e-01 8.624307e-01 1.050141e+00
  7.044756e-01 8.437295e-01 9.154540e-01 9.154540e-01 8.437295e-01 7.044756e-01 5.289195e-01 3.652542e-01 2.428365e-01 1.587128e-01 1.052266e-01 7.441845e-02 5.689330e-02 4.721652e-02 4.275643e-02 4.275643e-02 4.721652e-02 5.689330e-02 7.441845e-02 1.052266e-01 1.587128e-01 2.428365e-01 3.652542e-01 5.289195e-01 7.044756e-01
  4.121440e-01 5.181117e-01 5.953970e-01 6.234706e-01 5.953970e-01 5.181117e-01 4.121440e-01 3.055422e-01 2.165807e-01 1.488958e-01 1.028082e-01 7.441845e-02 5.721530e-02 4.701348e-02 4.141173e-02 3.963785e-02 4.141173e-02 4.701348e-02 5.721530e-02 7.441845e-02 1.028082e-01 1.488958e-01 2.165807e-01 3.055422e-01 4.121440e-01
  2.393096e-01 3.002828e-01 3.529793e-01 3.839430e-01 3.839430e-01 3.529793e-01 3.002828e-01 2.393096e-01 1.809246e-01 1.320047e-01 9.627167e-02 7.246836e-02 5.689330e-02 4.701348e-02 4.101239e-02 3.815625e-02 3.815625e-02 4.101239e-02 4.701348e-02 5.689330e-02 7.246836e-02 9.627167e-02 1.320047e-01 1.809246e-01 2.393096e-01
  1.438167e-01 1.786085e-01 2.107058e-01 2.335499e-01 2.418369e-01 2.335499e-01 2.107058e-01 1.786085e-01 1.438167e-01 1.121596e-01 8.721014e-02 6.898698e-02 5.599771e-02 4.721652e-02 4.141173e-02 3.815625e-02 3.707833e-02 3.815625e-02 4.141173e-02 4.721652e-02 5.599771e-02 6.898698e-02 8.721014e-02 1.121596e-01 1.438167e-01
  9.320569e-02 1.113735e-01 1.296912e-01 1.447556e-01 1.533124e-01 1.533124e-01 1.447556e-01 1.296912e-01 1.113735e-01 9.320569e-02 7.750864e-02 6.475011e-02 5.495126e-02 4.778890e-02 4.275643e-02 3.963785e-02 3.815625e-02 3.815625e-02 3.963785e-02 4.275643e-02 4.778890e-02 5.495126e-02 6.475011e-02 7.750864e-02 9.320569e-02
  6.847777e-02 7.742440e-02 8.665454e-02 9.498381e-02 1.008191e-01 1.029531e-01 1.008191e-01 9.498381e-02 8.665454e-02 7.742440e-02 6.847777e-02 6.048660e-02 5.397147e-02 4.889310e-02 4.512569e-02 4.275643e-02 4.141173e-02 4.101239e-02 4.141173e-02 4.275643e-02 4.512569e-02 4.889310e-02 5.397147e-02 6.048660e-02 6.847777e-02
  5.670049e-02 6.072514e-02 6.503769e-02 6.912105e-02 7.236228e-02 7.412793e-02 7.412793e-02 7.236228e-02 6.912105e-02 6.503769e-02 6.072514e-02 5.670049e-02 5.338969e-02 5.076119e-02 4.889310e-02 4.778890e-02 4.721652e-02 4.701348e-02 4.701348e-02 4.721652e-02 4.778890e-02 4.889310e-02 5.076119e-02 5.338969e-02 5.670049e-02
  5.335706e-02 5.375069e-02 5.461446e-02 5.576764e-02 5.686317e-02 5.775387e-02 5.806423e-02 5.775387e-02 5.686317e-02 5.576764e-02 5.461446e-02 5.375069e-02 5.335706e-02 5.338969e-02 5.397147e-02 5.495126e-02 5.599771e-02 5.689330e-02 5.721530e-02 5.689330e-02 5.599771e-02 5.495126e-02 5.397147e-02 5.338969e-02 5.335706e-02
  5.670049e-02 5.375069e-02 5.152260e-02 4.998596e-02 4.912626e-02 4.869917e-02 4.856261e-02 4.856261e-02 4.869917e-02 4.912626e-02 4.998596e-02 5.152260e-02 5.375069e-02 5.670049e-02 6.048660e-02 6.475011e-02 6.898698e-02 7.246836e-02 7.441845e-02 7.441845e-02 7.246836e-02 6.898698e-02 6.475011e-02 6.048660e-02 5.670049e-02
  6.847777e-02 6.072514e-02 5.461446e-02 4.998596e-02 4.659785e-02 4.451263e-02 4.332870e-02 4.298004e-02 4.332870e-02 4.451263e-02 4.659785e-02 4.998596e-02 5.461446e-02 6.072514e-02 6.847777e-02 7.750864e-02 8.721014e-02 9.627167e-02 1.028082e-01 1.052266e-01 1.028082e-01 9.627167e-02 8.721014e-02 7.750864e-02 6.847777e-02
  9.320569e-02 7.742440e-02 6.503769e-02 5.576764e-02 4.912626e-02 4.451263e-02 4.166797e-02 4.031540e-02 4.031540e-02 4.166797e-02 4.451263e-02 4.912626e-02 5.576764e-02 6.503769e-02 7.742440e-02 9.320569e-02 1.121596e-01 1.320047e-01 1.488958e-01 1.587128e-01 1.587128e-01 1.488958e-01 1.320047e-01 1.121596e-01 9.320569e-02
  1.438167e-01 1.113735e-01 8.665454e-02 6.912105e-02 5.686317e-02 4.869917e-02 4.332870e-02 4.031540e-02 3.931685e-02 4.031540e-02 4.332870e-02 4.869917e-02 5.686317e-02 6.912105e-02 8.665454e-02 1.113735e-01 1.438167e-01 1.809246e-01 2.165807e-01 2.428365e-01 2.525645e-01 2.428365e-01 2.165807e-01 1.809246e-01 1.438167e-01
  2.393096e-01 1.786085e-01 1.296912e-01 9.498381e-02 7.236228e-02 5.775387e-02 4.856261e-02 4.298004e-02 4.031540e-02 4.031540e-02 4.298004e-02 4.856261e-02 5.775387e-02 7.236228e-02 9.498381e-02 1.296912e-01 1.786085e-01 2.393096e-01 3.055422e-01 3.652542e-01 4.014765e-01 4.014765e-01 3.652542e-01 3.055422e-01 2.393096e-01
  4.121440e-01 3.002828e-01 2.107058e-01 1.447556e-01 1.008191e-01 7.412793e-02 5.806423e-02 4.856261e-02 4.332870e-02 4.166797e-02 4.332870e-02 4.856261e-02 5.806423e-02 7.412793e-02 1.008191e-01 1.447556e-01 2.107058e-01 3.002828e-01 4.121440e-01 5.289195e-01 6.183342e-01 6.518422e-01 6.183342e-01 5.289195e-01 4.121440e-01
  7.044756e-01 5.181117e-01 3.529793e-01 2.335499e-01 1.533124e-01 1.029531e-01 7.412793e-02 5.775387e-02 4.869917e-02 4.451263e-02 4.451263e-02 4.869917e-02 5.775387e-02 7.412793e-02 1.029531e-01 1.533124e-01 2.335499e-01 3.529793e-01 5.181117e-01 7.044756e-01 8.624307e-01 9.495055e-01 9.495055e-01 8.624307e-01 7.044756e-01
  1.050141e+00 8.437295e-01 5.953970e-01 3.839430e-01 2.418369e-01 1.533124e-01 1.008191e-01 7.236228e-02 5.686317e-02 4.912626e-02 4.659785e-02 4.912626e-02 5.686317e-02 7.236228e-02 1.008191e-01 1.533124e-01 2.418369e-01 3.839430e-01 5.953970e-01 8.437295e-01 1.050141e+00 1.159660e+00 1.188351e+00 1.159660e+00 1.050141e+00
  1.188382e+00 1.135350e+00 9.154540e-01 6.234706e-01 3.839430e-01 2.335499e-01 1.447556e-01 9.498381e-02 6.912105e-02 5.576764e-02 4.998596e-02 4.998596e-02 5.576764e-02 6.912105e-02 9.498381e-02 1.447556e-01 2.335499e-01 3.839430e-01 6.234706e-01 9.154540e-01 1.135350e+00 1.188382e+00 1.145170e+00 1.145170e+00 1.188382e+00
  8.916853e-01 1.123879e+00 1.152701e+00 9.154540e-01 5.953970e-01 3.529793e-01 2.107058e-01 1.296912e-01 8.665454e-02 6.503769e-02 5.461446e-02 5.152260e-02 5.461446e-02 6.503769e-02 8.665454e-02 1.296912e-01 2.107058e-01 3.529793e-01 5.953970e-01 9.154540e-01 1.152701e+00 1.123879e+00 8.916853e-01 7.554025e-01 8.916853e-01
  3.434044e-01 7.452724e-01 1.123879e+00 1.135350e+00 8.437295e-01 5.181117e-01 3.002828e-01 1.786085e-01 1.113735e-01 7.742440e-02 6.072514e-02 5.375069e-02 5.375069e-02 6.072514e-02 7.742440e-02 1.113735e-01 1.786085e-01 3.002828e-01 5.181117e-01 8.437295e-01 1.135350e+00 1.123879e+00 7.452724e-01 3.434044e-01 3.434044e-01
  6.346620e-02 3.434044e-01 8.916853e-01 1.188382e+00 1.050141e+00 7.044756e-01 4.121440e-01 2.393096e-01 1.438167e-01 9.320569e-02 6.847777e-02 5.670049e-02 5.335706e-02 5.670049e-02 6.847777e-02 9.320569e-02 1.438167e-01 2.393096e-01 4.121440e-01 7.044756e-01 1.050141e+00 1.188382e+00 8.916853e-01 3.434044e-01 6.346620e-02
  9.725754e-01 1.059073e+00 1.183756e+00 1.126494e+00 8.636785e-01 5.576454e-01 3.332623e-01 2.009171e-01 1.243233e-01 8.371834e-02 6.292306e-02 5.292340e-02 4.982400e-02 5.292340e-02 6.292306e-02 8.371834e-02 1.243233e-01 2.009171e-01 3.332623e-01 5.576454e-01 8.636785e-01 1.126494e+00 1.183756e+00 1.059073e+00 9.725754e-01
  1.059073e+00 1.059073e+00 1.165967e+00 1.185031e+00 9.942643e-01 6.884625e-01 4.222237e-01 2.531955e-01 1.543037e-01 9.896756e-02 7.050773e-02 5.597374e-02 4.975415e-02 4.975415e-02 5.597374e-02 7.050773e-02 9.896756e-02 1.543037e-01 2.531955e-01 4.222237e-01 6.884625e-01 9.942643e-01 1.185031e+00 1.165967e+00 1.059073e+00
  1.183756e+00 1.156194e+00 1.183756e+00 1.185031e+00 1.038344e+00 7.653819e-01 4.916954e-01 2.993126e-01 1.832484e-01 1.149074e-01 7.856788e-02 5.943387e-02 5.017281e-02 4.718256e-02 5.017281e-02 5.943387e-02 7.856788e-02 1.149074e-01 1.832484e-01 2.993126e-01 4.916954e-01 7.653819e-01 1.038344e+00 1.185031e+00 1.183756e+00
  1.126494e+00 1.164853e+00 1.164853e+00 1.126494e+00 9.942643e-01 7.653819e-01 5.181271e-01 3.270550e-01 2.045559e-01 1.285582e-01 8.595118e-02 6.296211e-02 5.087216e-02 4.546478e-02 4.546478e-02 5.087216e-02 6.296211e-02 8.595118e-02 1.285582e-01 2.045559e-01 3.270550e-01 5.181271e-01 7.653819e-01 9.942643e-01 1.126494e+00
  8.636785e-01 9.716805e-01 1.005155e+00 9.716805e-01 8.636785e-01 6.884625e-01 4.916954e-01 3.270550e-01 2.124221e-01 1.364883e-01 9.128323e-02 6.584282e-02 5.174106e-02 4.435916e-02 4.206038e-02 4.435916e-02 5.174106e-02 6.584282e-02 9.128323e-02 1.364883e-01 2.124221e-01 3.270550e-01 4.916954e-01 6.884625e-01 8.636785e-01
  5.576454e-01 6.711410e-01 7.338542e-01 7.338542e-01 6.711410e-01 5.576454e-01 4.222237e-01 2.993126e-01 2.045559e-01 1.364883e-01 9.324614e-02 6.748313e-02 5.241389e-02 4.379044e-02 3.978715e-02 3.978715e-02 4.379044e-02 5.241389e-02 6.748313e-02 9.324614e-02 1.364883e-01 2.045559e-01 2.993126e-01 4.222237e-01 5.576454e-01
  3.332623e-01 4.120910e-01 4.703360e-01 4.917468e-01 4.703360e-01 4.120910e-01 3.332623e-01 2.531955e-01 1.832484e-01 1.285582e-01 9.128323e-02 6.748313e-02 5.266924e-02 4.356951e-02 3.856224e-02 3.694989e-02 3.856224e-02 4.356951e-02 5.266924e-02 6.748313e-02 9.128323e-02 1.285582e-01 1.832484e-01 2.531955e-01 3.332623e-01
  2.009171e-01 2.480868e-01 2.874893e-01 3.102717e-01 3.102717e-01 2.874893e-01 2.480868e-01 2.009171e-01 1.543037e-01 1.149074e-01 8.595118e-02 6.584282e-02 5.241389e-02 4.356951e-02 3.818193e-02 3.562263e-02 3.562263e-02 3.818193e-02 4.356951e-02 5.241389e-02 6.584282e-02 8.595118e-02 1.149074e-01 1.543037e-01 2.009171e-01
  1.243233e-01 1.521428e-01 1.776191e-01 1.955693e-01 2.020215e-01 1.955693e-01 1.776191e-01 1.521428e-01 1.243233e-01 9.896756e-02 7.856788e-02 6.296211e-02 5.174106e-02 4.379044e-02 3.856224e-02 3.562263e-02 3.467184e-02 3.562263e-02 3.856224e-02 4.379044e-02 5.174106e-02 6.296211e-02 7.856788e-02 9.896756e-02 1.243233e-01
  8.371834e-02 9.838924e-02 1.129554e-01 1.248761e-01 1.315880e-01 1.315880e-01 1.248761e-01 1.129554e-01 9.838924e-02 8.371834e-02 7.050773e-02 5.943387e-02 5.087216e-02 4.435916e-02 3.978715e-02 3.694989e-02 3.562263e-02 3.562263e-02 3.694989e-02 3.978715e-02 4.435916e-02 5.087216e-02 5.943387e-02 7.050773e-02 8.371834e-02
  6.292306e-02 7.069368e-02 7.848900e-02 8.527413e-02 8.998386e-02 9.168664e-02 8.998386e-02 8.527413e-02 7.848900e-02 7.069368e-02 6.292306e-02 5.597374e-02 5.017281e-02 4.546478e-02 4.206038e-02 3.978715e-02 3.856224e-02 3.818193e-02 3.856224e-02 3.978715e-02 4.206038e-02 4.546478e-02 5.017281e-02 5.597374e-02 6.292306e-02
  5.292340e-02 5.651920e-02 6.028840e-02 6.386093e-02 6.663359e-02 6.815408e-02 6.815408e-02 6.663359e-02 6.386093e-02 6.028840e-02 5.651920e-02 5.292340e-02 4.975415e-02 4.718256e-02 4.546478e-02 4.435916e-02 4.379044e-02 4.356951e-02 4.356951e-02 4.379044e-02 4.435916e-02 4.546478e-02 4.718256e-02 4.975415e-02 5.292340e-02
  4.982400e-02 5.044292e-02 5.143587e-02 5.254927e-02 5.365102e-02 5.442545e-02 5.470406e-02 5.442545e-02 5.365102e-02 5.254927e-02 5.143587e-02 5.044292e-02 4.982400e-02 4.975415e-02 5.017281e-02 5.087216e-02 5.174106e-02 5.241389e-02 5.266924e-02 5.241389e-02 5.174106e-02 5.087216e-02 5.017281e-02 4.975415e-02 4.982400e-02
  5.292340e-02 5.044292e-02 4.857866e-02 4.747067e-02 4.682887e-02 4.653601e-02 4.644455e-02 4.644455e-02 4.653601e-02 4.682887e-02 4.747067e-02 4.857866e-02 5.044292e-02 5.292340e-02 5.597374e-02 5.943387e-02 6.296211e-02 6.584282e-02 6.748313e-02 6.748313e-02 6.584282e-02 6.296211e-02 5.943387e-02 5.597374e-02 5.292340e-02
  6.292306e-02 5.651920e-02 5.143587e-02 4.747067e-02 4.468576e-02 4.285376e-02 4.188728e-02 4.159189e-02 4.188728e-02 4.285376e-02 4.468576e-02 4.747067e-02 5.143587e-02 5.651920e-02 6.292306e-02 7.050773e-02 7.856788e-02 8.595118e-02 9.128323e-02 9.324614e-02 9.128323e-02 8.595118e-02 7.856788e-02 7.050773e-02 6.292306e-02