
*************** JDFTx 1.4.2  ***************

Start date and time: Mon Mar 11 15:23:42 2019
Executable jdftx with command-line: -i Solvated.in
Running on hosts (process indices):  dhcp-ccc-9638.eduroam.cornell.edu (0)
Divided in process groups (process indices):  0 (0)
Resource initialization completed at t[s]:      0.00
Run totals: 1 processes, 12 threads, 0 GPUs


Input parsed successfully to the following command list (including defaults):

basis kpoint-dependent
coords-type Lattice
core-overlap-check vector
coulomb-interaction Slab 001
coulomb-truncation-embed 0 0 0
davidson-band-ratio 1.1
dump End State ElecDensity Ecomponents
dump-name $INPUT.$VAR
elec-cutoff 20 100
elec-eigen-algo Davidson
elec-ex-corr gga-PBEsol
elec-smearing Fermi 0.01
electronic-minimize  \
	dirUpdateScheme      FletcherReeves \
	linminMethod         DirUpdateRecommended \
	nIterations          100 \
	history              15 \
	knormThreshold       0 \
	energyDiffThreshold  1e-08 \
	nEnergyDiff          2 \
	alphaTstart          1 \
	alphaTmin            1e-10 \
	updateTestStepSize   yes \
	alphaTreduceFactor   0.1 \
	alphaTincreaseFactor 3 \
	nAlphaAdjustMax      3 \
	wolfeEnergy          0.0001 \
	wolfeGradient        0.9 \
	fdTest               no
electronic-scf  \
	nIterations	50 \
	energyDiffThreshold	1e-08 \
	residualThreshold	1e-07 \
	mixFraction	0.5 \
	qMetric	0.8 \
	history	10 \
	nEigSteps	2 \
	eigDiffThreshold	1e-08 \
	mixedVariable	Density \
	qKerker	0.8 \
	qKappa	-1 \
	verbose	no \
	mixFractionMag	1.5
exchange-regularization WignerSeitzTruncated
fluid LinearPCM 298.000000 1.013250
fluid-anion F- 1 MeanFieldLJ \
	epsBulk 1 \
	pMol 0 \
	epsInf 1 \
	Pvap 0 \
	sigmaBulk 0 \
	Rvdw 2.24877 \
	Res 0
fluid-cation Na+ 1 MeanFieldLJ \
	epsBulk 1 \
	pMol 0 \
	epsInf 1 \
	Pvap 0 \
	sigmaBulk 0 \
	Rvdw 2.19208 \
	Res 0
fluid-ex-corr lda-TF lda-PZ
fluid-gummel-loop 10 1.000000e-05
fluid-minimize  \
	dirUpdateScheme      PolakRibiere \
	linminMethod         DirUpdateRecommended \
	nIterations          400 \
	history              15 \
	knormThreshold       1e-11 \
	energyDiffThreshold  0 \
	nEnergyDiff          2 \
	alphaTstart          1 \
	alphaTmin            1e-10 \
	updateTestStepSize   yes \
	alphaTreduceFactor   0.1 \
	alphaTincreaseFactor 3 \
	nAlphaAdjustMax      6 \
	wolfeEnergy          0.0001 \
	wolfeGradient        0.9 \
	fdTest               no
fluid-solvent H2O 55.338 ScalarEOS \
	epsBulk 78.4 \
	pMol 0.92466 \
	epsInf 1.77 \
	Pvap 1.06736e-10 \
	sigmaBulk 4.62e-05 \
	Rvdw 2.61727 \
	Res 1.42
forces-output-coords Positions
initial-state 100-Vacuum.$VAR
ion Pt   0.000000000000000   0.000000000000000  -0.200000000000000 1
ion Pt   0.500000000000000   0.500000000000000  -0.100000000000000 1
ion Pt   0.000000000000000   0.000000000000000   0.000000000000000 1
ion Pt   0.500000000000000   0.500000000000000   0.100000000000000 1
ion Pt   0.000000000000000   0.000000000000000   0.200000000000000 1
ion-species GBRV/$ID_pbesol.uspp
ion-width Ecut
ionic-minimize  \
	dirUpdateScheme      L-BFGS \
	linminMethod         DirUpdateRecommended \
	nIterations          0 \
	history              15 \
	knormThreshold       0.0001 \
	energyDiffThreshold  1e-06 \
	nEnergyDiff          2 \
	alphaTstart          1 \
	alphaTmin            1e-10 \
	updateTestStepSize   yes \
	alphaTreduceFactor   0.1 \
	alphaTincreaseFactor 3 \
	nAlphaAdjustMax      3 \
	wolfeEnergy          0.0001 \
	wolfeGradient        0.9 \
	fdTest               no
kpoint   0.000000000000   0.000000000000   0.000000000000  1.00000000000000
kpoint-folding 12 12 1 
latt-move-scale 1 1 1
latt-scale 1 1 1 
lattice Tetragonal 5.23966 37.05
lattice-minimize  \
	dirUpdateScheme      L-BFGS \
	linminMethod         DirUpdateRecommended \
	nIterations          0 \
	history              15 \
	knormThreshold       0 \
	energyDiffThreshold  1e-06 \
	nEnergyDiff          2 \
	alphaTstart          1 \
	alphaTmin            1e-10 \
	updateTestStepSize   yes \
	alphaTreduceFactor   0.1 \
	alphaTincreaseFactor 3 \
	nAlphaAdjustMax      3 \
	wolfeEnergy          0.0001 \
	wolfeGradient        0.9 \
	fdTest               no
lcao-params -1 1e-06 0.01
pcm-variant CANDLE
spintype no-spin
subspace-rotation-factor 1 yes
symmetries automatic
symmetry-threshold 0.0001



---------- Setting up symmetries ----------

Found 16 point-group symmetries of the bravais lattice
Found 16 space-group symmetries with basis
Applied RMS atom displacement 0 bohrs to make symmetries exact.

---------- Initializing the Grid ----------
R = 
[    5.23966          0          0  ]
[          0    5.23966          0  ]
[          0          0      37.05  ]
unit cell volume = 1017.17
G =
[    1.19916          0          0  ]
[          0    1.19916          0  ]
[          0          0   0.169587  ]
Minimum fftbox size, Smin = [  24  24  168  ]
Chosen fftbox size, S = [  24  24  168  ]

---------- Initializing tighter grid for wavefunction operations ----------
R = 
[    5.23966          0          0  ]
[          0    5.23966          0  ]
[          0          0      37.05  ]
unit cell volume = 1017.17
G =
[    1.19916          0          0  ]
[          0    1.19916          0  ]
[          0          0   0.169587  ]
Minimum fftbox size, Smin = [  24  24  152  ]
Chosen fftbox size, S = [  24  24  160  ]

---------- Exchange Correlation functional ----------
Initalized PBEsol GGA exchange.
Initalized PBEsol GGA correlation.

---------- Setting up pseudopotentials ----------
Width of ionic core gaussian charges (only for fluid interactions / plotting) set to 0.397384

Reading pseudopotential file '/Users/juanmendezvalderrama/Documents/JDFTX/build/pseudopotentials/GBRV/pt_pbesol.uspp':
  Title: Pt.  Created by USPP 7.3.6 on 22-9-15
  Reference state energy: -104.899005.  16 valence electrons in orbitals:
    |510>  occupation: 6  eigenvalue: -2.158847
    |520>  occupation: 9.5  eigenvalue: -0.336311
    |600>  occupation: 0  eigenvalue: -0.320324
    |610>  occupation: 0  eigenvalue: -0.119800
  lMax: 2  lLocal: 3  QijEcut: 5.5
  6 projectors sampled on a log grid with 745 points:
    l: 0  eig: -0.320324  rCut: 2.45
    l: 0  eig: 1.500000  rCut: 2.45
    l: 1  eig: -2.158847  rCut: 1.6
    l: 1  eig: -0.119800  rCut: 1.6
    l: 2  eig: -0.500000  rCut: 1.6
    l: 2  eig: -0.336311  rCut: 1.6
  Partial core density with radius 1.1
  Transforming core density to a uniform radial grid of dG=0.02 with 1248 points.
  Transforming local potential to a uniform radial grid of dG=0.02 with 1248 points.
  Transforming nonlocal projectors to a uniform radial grid of dG=0.02 with 432 points.
  Transforming density augmentations to a uniform radial grid of dG=0.02 with 1248 points.
  Transforming atomic orbitals to a uniform radial grid of dG=0.02 with 432 points.
  Core radius for overlap checks: 2.45 bohrs.

Initialized 1 species with 5 total atoms.

Folded 1 k-points by 12x12x1 to 144 k-points.

---------- Setting up k-points, bands, fillings ----------
Reduced to 28 k-points under symmetry. 
Computing the number of bands and number of electrons
Reading initial fillings from file 100-Vacuum.fillings.
nElectrons:  80.000000   nBands: 60   nStates: 28

----- Setting up reduced wavefunction bases (one per k-point) -----
average nbasis = 4346.104 , ideal nbasis = 4345.437

---------- Setting up coulomb interaction ----------
Fluid mode embedding: using embedded box, but periodic Coulomb kernel.
(Fluid response is responsible for (approximate) separation between periodic images.)
Setting up double-sized grid for truncated Coulomb potentials:
R = 
[    5.23966          0          0  ]
[          0    5.23966          0  ]
[          0          0       74.1  ]
unit cell volume = 2034.34
G =
[    1.19916          0          0  ]
[          0    1.19916          0  ]
[          0          0  0.0847933  ]
Chosen fftbox size, S = [  24  24  336  ]
Integer grid location selected as the embedding center:
   Grid: [  0  0  0  ]
   Lattice: [  0  0  0  ]
   Cartesian: [  0  0  0  ]
Constructing Wigner-Seitz cell: 6 faces (6 quadrilaterals, 0 hexagons)
Range-separation parameter for embedded mesh potentials due to point charges: 0.592447 bohrs.

Initializing van der Waals corrections
	NOTE: vdW corrections apply only for interactions with fluid.
	Pt:  C6:  815.23 Eh-a0^6  R0: 3.326 a0 (WARNING: beyond Grimme's data set)

---------- Setting up ewald sum ----------
Optimum gaussian width for ewald sums = 3.865656 bohr.
Real space sum over 1805 unit cells with max indices [  9  9  2  ]
Reciprocal space sum over 4941 terms with max indices [  4  4  30  ]

---------- Allocating electronic variables ----------
Initializing wave functions:  reading from '100-Vacuum.wfns'
----- createFluidSolver() ----- (Fluid-side solver setup)
   Initializing fluid molecule 'H2O'
     Initializing site 'O'
       Electron density: proportional to exp(-r/0.36935)*erfc((r-0.51523)/0.36823) with norm 6.826
       Charge density: gaussian nuclear width 0.478731 with net site charge 0.826
       Polarizability: cuspless exponential with width 0.32 and norm 3.73
       Hard sphere radius: 2.57003 bohrs
       Positions in reference frame:
         [ +0.000000 +0.000000 +0.000000 ]
     Initializing site 'H'
       Electron density: proportional to exp(-r/0.34641)*erfc((r-0)/0.390882) with norm 0.587
       Charge density: gaussian nuclear width 0.377945 with net site charge -0.413
       Polarizability: cuspless exponential with width 0.39 and norm 3.3
       Positions in reference frame:
         [ +0.000000 -1.441945 +1.122523 ]
         [ +0.000000 +1.441945 +1.122523 ]
     Net charge: 0   dipole magnitude: 0.927204
     Initializing spherical shell mfKernel with radius 2.61727 Bohr
     deltaS corrections:
       site 'O': -7.54299
       site 'H': -6.83917
   Initializing fluid molecule 'Na+'
     Initializing site 'Na'
       Electron density: proportional to exp(-r/0.19682)*erfc((r-0.71491)/0.41314) with norm 8.1383
       Charge density: gaussian nuclear width 0.365347 with net site charge -1
       Hard sphere radius: 1.86327 bohrs
       Positions in reference frame:
         [ +0.000000 +0.000000 +0.000000 ]
     Net charge: -1   dipole magnitude: 0
     Initializing gaussian mfKernel with width: 1.55004 Bohr
     deltaS corrections:
       site 'Na': -22.3555
   Initializing fluid molecule 'F-'
     Initializing site 'F'
       Electron density: proportional to exp(-r/0.38886)*erfc((r-0)/0.438782) with norm 8
       Charge density: gaussian nuclear width 0.374796 with net site charge 1
       Hard sphere radius: 2.39995 bohrs
       Positions in reference frame:
         [ +0.000000 +0.000000 +0.000000 ]
     Net charge: 1   dipole magnitude: 0
     Initializing gaussian mfKernel with width: 1.59012 Bohr
     deltaS corrections:
       site 'F': -9.04335

Correction to mu due to finite nuclear width = -0.039018
   Cavity determined by nc: 0.00142 and sigma: 0.707107
   Nonlocal vdW cavity from gaussian model electron density with norm = 8 and sigma = 0.993594 bohr
   Charge asymmetry in cavity with sensitivity pCavity = 36.5 e-bohr/Eh
   Electrostatic cavity expanded by eta = 1.46 bohrs
   Weighted density cavitation model constrained by Nbulk: 0.0049383 bohr^-3, Pvap: 3.14029 kPa, Rvdw: 2.61727 bohr and sigmaBulk: 4.62e-05 Eh/bohr^2 at T: 298 K.
   Weighted density dispersion model using vdW pair potentials with single solvent site with sqrtC6eff: 0.77 SI.


---- Citations for features of the code used in this run ----

   Software package:
      R. Sundararaman, K. Letchworth-Weaver, K.A. Schwarz, D. Gunceler, Y. Ozhabes and T.A. Arias, 'JDFTx: software for joint density-functional theory', SoftwareX 6, 278 (2017)

   gga-PBEsol exchange-correlation functional:
      J.P. Perdew et al., Phys. Rev. Lett. 100, 136406 (2008)

   Pseudopotentials:
      KF Garrity, JW Bennett, KM Rabe and D Vanderbilt, Comput. Mater. Sci. 81, 446 (2014)

   Truncated Coulomb potentials:
      R. Sundararaman and T.A. Arias, Phys. Rev. B 87, 165122 (2013)

   Van der Waals correction pair-potentials:
      S. Grimme, J. Comput. Chem. 27, 1787 (2006)

   Charge-asymmetric nonlocally-determined local-electric (CANDLE) solvation model:
      R. Sundararaman and W.A. Goddard III, J. Chem. Phys. 142, 064107 (2015)

This list may not be complete. Please suggest additional citations or
report any other bugs at https://github.com/shankar1729/jdftx/issues

Initialization completed successfully at t[s]:      3.10

	Linear fluid (dielectric constant: 78.4, screening length: 5.74355 Bohr) occupying 0.639288 of unit cell:	Completed after 15 iterations at t[s]:      5.95

-------- Electronic minimization -----------
Will mix electronic density at each iteration.
	FillingsUpdate:  mu: -0.210217674  nElectrons: 80.000000
	Linear fluid (dielectric constant: 78.4, screening length: 5.74355 Bohr) occupying 0.639288 of unit cell:	Completed after 0 iterations at t[s]:      7.37
	FillingsUpdate:  mu: -0.204151378  nElectrons: 80.000000
	Linear fluid (dielectric constant: 78.4, screening length: 5.74355 Bohr) occupying 0.640977 of unit cell:	Completed after 10 iterations at t[s]:     21.43
SCF: Cycle:  0   F: -445.127227078331316   dF: +2.521e-05   |Residual|: 1.581e-03   |deigs|: 1.894e-04  t[s]:     21.58
	Linear fluid (dielectric constant: 78.4, screening length: 5.74355 Bohr) occupying 0.639059 of unit cell:	Completed after 11 iterations at t[s]:     21.87
	FillingsUpdate:  mu: -0.203213147  nElectrons: 80.000000
	Linear fluid (dielectric constant: 78.4, screening length: 5.74355 Bohr) occupying 0.640837 of unit cell:	Completed after 13 iterations at t[s]:     33.14
SCF: Cycle:  1   F: -445.127276029207565   dF: -4.895e-05   |Residual|: 1.844e-03   |deigs|: 9.455e-04  t[s]:     33.27
	Linear fluid (dielectric constant: 78.4, screening length: 5.74355 Bohr) occupying 0.639105 of unit cell:	Completed after 13 iterations at t[s]:     33.44
	FillingsUpdate:  mu: -0.203051102  nElectrons: 80.000000
	Linear fluid (dielectric constant: 78.4, screening length: 5.74355 Bohr) occupying 0.640841 of unit cell:	Completed after 14 iterations at t[s]:     43.19
SCF: Cycle:  2   F: -445.127224808742142   dF: +5.122e-05   |Residual|: 1.820e-03   |deigs|: 3.176e-04  t[s]:     43.32
	Linear fluid (dielectric constant: 78.4, screening length: 5.74355 Bohr) occupying 0.639142 of unit cell:	Completed after 14 iterations at t[s]:     43.50
	FillingsUpdate:  mu: -0.202619606  nElectrons: 80.000000
	Linear fluid (dielectric constant: 78.4, screening length: 5.74355 Bohr) occupying 0.640818 of unit cell:	Completed after 14 iterations at t[s]:     52.79
SCF: Cycle:  3   F: -445.127293134994545   dF: -6.833e-05   |Residual|: 5.461e-04   |deigs|: 4.396e-04  t[s]:     52.94
	Linear fluid (dielectric constant: 78.4, screening length: 5.74355 Bohr) occupying 0.639292 of unit cell:	Completed after 14 iterations at t[s]:     53.12
	FillingsUpdate:  mu: -0.202165254  nElectrons: 80.000000
	Linear fluid (dielectric constant: 78.4, screening length: 5.74355 Bohr) occupying 0.640806 of unit cell:	Completed after 14 iterations at t[s]:     63.08
SCF: Cycle:  4   F: -445.127294822248814   dF: -1.687e-06   |Residual|: 5.801e-04   |deigs|: 4.542e-04  t[s]:     63.26
	Linear fluid (dielectric constant: 78.4, screening length: 5.74355 Bohr) occupying 0.639598 of unit cell:	Completed after 13 iterations at t[s]:     63.49
	FillingsUpdate:  mu: -0.201506822  nElectrons: 80.000000
	Linear fluid (dielectric constant: 78.4, screening length: 5.74355 Bohr) occupying 0.640797 of unit cell:	Completed after 12 iterations at t[s]:     74.87
SCF: Cycle:  5   F: -445.127298129703547   dF: -3.307e-06   |Residual|: 2.436e-04   |deigs|: 6.404e-04  t[s]:     75.01
	Linear fluid (dielectric constant: 78.4, screening length: 5.74355 Bohr) occupying 0.640117 of unit cell:	Completed after 11 iterations at t[s]:     75.16
	FillingsUpdate:  mu: -0.200987997  nElectrons: 80.000000
	Linear fluid (dielectric constant: 78.4, screening length: 5.74355 Bohr) occupying 0.640792 of unit cell:	Completed after 11 iterations at t[s]:     84.43
SCF: Cycle:  6   F: -445.127298994525859   dF: -8.648e-07   |Residual|: 1.588e-04   |deigs|: 5.061e-04  t[s]:     84.56
	Linear fluid (dielectric constant: 78.4, screening length: 5.74355 Bohr) occupying 0.640643 of unit cell:	Completed after 11 iterations at t[s]:     84.82
	FillingsUpdate:  mu: -0.200711891  nElectrons: 80.000000
	Linear fluid (dielectric constant: 78.4, screening length: 5.74355 Bohr) occupying 0.640786 of unit cell:	Completed after 9 iterations at t[s]:     94.88
SCF: Cycle:  7   F: -445.127299295900968   dF: -3.014e-07   |Residual|: 1.089e-04   |deigs|: 2.691e-04  t[s]:     95.02
	Linear fluid (dielectric constant: 78.4, screening length: 5.74355 Bohr) occupying 0.640944 of unit cell:	Completed after 11 iterations at t[s]:     95.18
	FillingsUpdate:  mu: -0.200581169  nElectrons: 80.000000
	Linear fluid (dielectric constant: 78.4, screening length: 5.74355 Bohr) occupying 0.640769 of unit cell:	Completed after 11 iterations at t[s]:    105.53
SCF: Cycle:  8   F: -445.127299421095245   dF: -1.252e-07   |Residual|: 9.134e-05   |deigs|: 2.860e-04  t[s]:    105.67
	Linear fluid (dielectric constant: 78.4, screening length: 5.74355 Bohr) occupying 0.640965 of unit cell:	Completed after 12 iterations at t[s]:    105.84
	FillingsUpdate:  mu: -0.200570854  nElectrons: 80.000000
	Linear fluid (dielectric constant: 78.4, screening length: 5.74355 Bohr) occupying 0.640756 of unit cell:	Completed after 5 iterations at t[s]:    117.08
SCF: Cycle:  9   F: -445.127299484842581   dF: -6.375e-08   |Residual|: 7.189e-05   |deigs|: 4.581e-04  t[s]:    117.22
	Linear fluid (dielectric constant: 78.4, screening length: 5.74355 Bohr) occupying 0.640822 of unit cell:	Completed after 5 iterations at t[s]:    117.32
	FillingsUpdate:  mu: -0.200578424  nElectrons: 80.000000
	Linear fluid (dielectric constant: 78.4, screening length: 5.74355 Bohr) occupying 0.640745 of unit cell:	Completed after 9 iterations at t[s]:    127.31
SCF: Cycle: 10   F: -445.127299494478279   dF: -9.636e-09   |Residual|: 4.613e-05   |deigs|: 5.167e-04  t[s]:    127.44
	Linear fluid (dielectric constant: 78.4, screening length: 5.74355 Bohr) occupying 0.640763 of unit cell:	Completed after 9 iterations at t[s]:    127.58
	FillingsUpdate:  mu: -0.200577146  nElectrons: 80.000000
	Linear fluid (dielectric constant: 78.4, screening length: 5.74355 Bohr) occupying 0.640743 of unit cell:	Completed after 2 iterations at t[s]:    137.67
SCF: Cycle: 11   F: -445.127299521958037   dF: -2.748e-08   |Residual|: 1.293e-05   |deigs|: 2.353e-04  t[s]:    137.80
	Linear fluid (dielectric constant: 78.4, screening length: 5.74355 Bohr) occupying 0.640743 of unit cell:	Completed after 0 iterations at t[s]:    137.84
	FillingsUpdate:  mu: -0.200572216  nElectrons: 80.000000
	Linear fluid (dielectric constant: 78.4, screening length: 5.74355 Bohr) occupying 0.640742 of unit cell:	Completed after 5 iterations at t[s]:    147.54
SCF: Cycle: 12   F: -445.127299504285759   dF: +1.767e-08   |Residual|: 5.147e-05   |deigs|: 1.640e-04  t[s]:    147.67
	Linear fluid (dielectric constant: 78.4, screening length: 5.74355 Bohr) occupying 0.640743 of unit cell:	Completed after 2 iterations at t[s]:    147.74
	FillingsUpdate:  mu: -0.200556713  nElectrons: 80.000000
	Linear fluid (dielectric constant: 78.4, screening length: 5.74355 Bohr) occupying 0.640740 of unit cell:	Completed after 10 iterations at t[s]:    158.22
SCF: Cycle: 13   F: -445.127299338764487   dF: +1.655e-07   |Residual|: 9.006e-05   |deigs|: 2.135e-05  t[s]:    158.36
	Linear fluid (dielectric constant: 78.4, screening length: 5.74355 Bohr) occupying 0.640743 of unit cell:	Completed after 10 iterations at t[s]:    158.51
	FillingsUpdate:  mu: -0.200570860  nElectrons: 80.000000
	Linear fluid (dielectric constant: 78.4, screening length: 5.74355 Bohr) occupying 0.640742 of unit cell:	Completed after 5 iterations at t[s]:    167.13
SCF: Cycle: 14   F: -445.127299514218464   dF: -1.755e-07   |Residual|: 2.173e-05   |deigs|: 2.340e-05  t[s]:    167.27
	Linear fluid (dielectric constant: 78.4, screening length: 5.74355 Bohr) occupying 0.640744 of unit cell:	Completed after 6 iterations at t[s]:    167.43
	FillingsUpdate:  mu: -0.200581310  nElectrons: 80.000000
	Linear fluid (dielectric constant: 78.4, screening length: 5.74355 Bohr) occupying 0.640743 of unit cell:	Completed after 2 iterations at t[s]:    176.95
SCF: Cycle: 15   F: -445.127299519285430   dF: -5.067e-09   |Residual|: 2.127e-05   |deigs|: 1.247e-05  t[s]:    177.15
	Linear fluid (dielectric constant: 78.4, screening length: 5.74355 Bohr) occupying 0.640742 of unit cell:	Completed after 3 iterations at t[s]:    177.25
	FillingsUpdate:  mu: -0.200577835  nElectrons: 80.000000
	Linear fluid (dielectric constant: 78.4, screening length: 5.74355 Bohr) occupying 0.640743 of unit cell:	Completed after 5 iterations at t[s]:    190.30
SCF: Cycle: 16   F: -445.127299515084815   dF: +4.201e-09   |Residual|: 2.102e-05   |deigs|: 3.614e-05  t[s]:    190.46
	Linear fluid (dielectric constant: 78.4, screening length: 5.74355 Bohr) occupying 0.640741 of unit cell:	Completed after 6 iterations at t[s]:    190.57
	FillingsUpdate:  mu: -0.200557531  nElectrons: 80.000000
	Linear fluid (dielectric constant: 78.4, screening length: 5.74355 Bohr) occupying 0.640740 of unit cell:	Completed after 9 iterations at t[s]:    201.81
SCF: Cycle: 17   F: -445.127299506164775   dF: +8.920e-09   |Residual|: 2.551e-05   |deigs|: 2.351e-05  t[s]:    201.95
	Linear fluid (dielectric constant: 78.4, screening length: 5.74355 Bohr) occupying 0.640742 of unit cell:	Completed after 8 iterations at t[s]:    202.08
	FillingsUpdate:  mu: -0.200568071  nElectrons: 80.000000
	Linear fluid (dielectric constant: 78.4, screening length: 5.74355 Bohr) occupying 0.640742 of unit cell:	Completed after 6 iterations at t[s]:    212.99
SCF: Cycle: 18   F: -445.127299511798526   dF: -5.634e-09   |Residual|: 2.123e-05   |deigs|: 2.100e-05  t[s]:    213.13
	Linear fluid (dielectric constant: 78.4, screening length: 5.74355 Bohr) occupying 0.640742 of unit cell:	Completed after 5 iterations at t[s]:    213.24
	FillingsUpdate:  mu: -0.200581004  nElectrons: 80.000000
	Linear fluid (dielectric constant: 78.4, screening length: 5.74355 Bohr) occupying 0.640743 of unit cell:	Completed after 3 iterations at t[s]:    223.34
SCF: Cycle: 19   F: -445.127299521071677   dF: -9.273e-09   |Residual|: 1.277e-05   |deigs|: 1.644e-05  t[s]:    223.48
SCF: Converged (|Delta E|<1.000000e-08 for 2 iters).


# Ionic positions in lattice coordinates:
ion Pt   0.000000000000000   0.000000000000000  -0.200000000000000 1
ion Pt   0.500000000000000   0.500000000000000  -0.100000000000000 1
ion Pt   0.000000000000000   0.000000000000000   0.000000000000000 1
ion Pt   0.500000000000000   0.500000000000000   0.100000000000000 1
ion Pt   0.000000000000000   0.000000000000000   0.200000000000000 1


# Forces in Lattice coordinates:
force Pt   0.000000000000000   0.000000000000000   0.244031289773370 1
force Pt   0.000000000000000  -0.000000000000000  -0.235621267464243 1
force Pt   0.000000000000000   0.000000000000000   0.000000000000000 1
force Pt   0.000000000000000   0.000000000000000   0.235621267464243 1
force Pt   0.000000000000000   0.000000000000000  -0.244031289774279 1

# Energy components:
   A_diel =       -0.0014529208453886
   Eewald =     4761.4242404817850911
       EH =     5157.3933562598213030
     Eloc =   -10440.7482692543144367
      Enl =       -5.2839108711642098
      Exc =     -141.5256883514501283
 Exc_core =       81.2082959828906041
       KE =      142.4641243381692846
  MuShift =       -0.0000000000018536
-------------------------------------
     Etot =     -445.0693043351098481
       TS =        0.0579951859618486
-------------------------------------
        F =     -445.1272995210716772

IonicMinimize: Iter:   0  F: -445.127299521071677  |grad|_K:  3.343e-03  t[s]:    224.28
IonicMinimize: None of the convergence criteria satisfied after 0 iterations.

#--- Lowdin population analysis ---
# oxidation-state Pt +0.027 -0.007 +0.014 -0.007 +0.027


Dumping 'Solvated.fillings' ... done
Dumping 'Solvated.wfns' ... done
Dumping 'Solvated.fluidState' ... done
Dumping 'Solvated.n' ... done
Dumping 'Solvated.eigenvals' ... done
Dumping 'Solvated.Ecomponents' ... done
End date and time: Mon Mar 11 15:27:27 2019  (Duration: 0-0:03:44.86)
Done!
