CRYSTAL
PRIMVEC
  2.772709   0.000000   0.000000
  0.000000   3.921203   0.000000
  0.000000   0.000000  14.816962
PRIMCOORD
5 1
78   0.000000   0.000000  -2.772698
78   1.386354   1.960602  -1.386349
78   0.000000   0.000000   0.000000
78   1.386354   1.960602   1.386349
78   0.000000   0.000000   2.772698
BEGIN_BLOCK_DATAGRID_3D
 n
 BEGIN_DATAGRID_3D_n
  25 37 129
    0.000000   0.000000   0.000000
    2.772709   0.000000   0.000000
    0.000000   3.921203   0.000000
    0.000000   0.000000  14.816962
  -1.665558e+00 -1.096794e+00 1.083079e-01 1.006453e+00 1.159068e+00 8.419694e-01 4.928055e-01 2.775499e-01 1.630502e-01 1.025881e-01 7.378261e-02 6.033836e-02 5.667272e-02 6.033836e-02 7.378261e-02 1.025881e-01 1.630502e-01 2.775499e-01 4.928055e-01 8.419694e-01 1.159068e+00 1.006453e+00 1.083079e-01 -1.096794e+00 -1.665558e+00
  -1.155169e+00 -6.685343e-01 3.485086e-01 1.071046e+00 1.134846e+00 8.056088e-01 4.708738e-01 2.672622e-01 1.580551e-01 1.002097e-01 7.253121e-02 5.951346e-02 5.595110e-02 5.951346e-02 7.253121e-02 1.002097e-01 1.580551e-01 2.672622e-01 4.708738e-01 8.056088e-01 1.134846e+00 1.071046e+00 3.485086e-01 -6.685343e-01 -1.155169e+00
  -2.572037e-02 2.666203e-01 8.434840e-01 1.167156e+00 1.044094e+00 7.037950e-01 4.124169e-01 2.395239e-01 1.444019e-01 9.369022e-02 6.903647e-02 5.720368e-02 5.391883e-02 5.720368e-02 6.903647e-02 9.369022e-02 1.444019e-01 2.395239e-01 4.124169e-01 7.037950e-01 1.044094e+00 1.167156e+00 8.434840e-01 2.666203e-01 -2.572037e-02
  9.192972e-01 1.016792e+00 1.164874e+00 1.125769e+00 8.690149e-01 5.613868e-01 3.350891e-01 2.019270e-01 1.253625e-01 8.466485e-02 6.391589e-02 5.392618e-02 5.085789e-02 5.392618e-02 6.391589e-02 8.466485e-02 1.253625e-01 2.019270e-01 3.350891e-01 5.613868e-01 8.690149e-01 1.125769e+00 1.164874e+00 1.016792e+00 9.192972e-01
  1.210683e+00 1.194059e+00 1.106505e+00 9.069459e-01 6.455402e-01 4.140929e-01 2.579296e-01 1.620651e-01 1.052029e-01 7.470628e-02 5.819203e-02 5.009120e-02 4.739766e-02 5.009120e-02 5.819203e-02 7.470628e-02 1.052029e-01 1.620651e-01 2.579296e-01 4.140929e-01 6.455402e-01 9.069459e-01 1.106505e+00 1.194059e+00 1.210683e+00
  9.816230e-01 9.365778e-01 8.073518e-01 6.240633e-01 4.379862e-01 2.916923e-01 1.916067e-01 1.259618e-01 8.717363e-02 6.509352e-02 5.274512e-02 4.614280e-02 4.411519e-02 4.614280e-02 5.274512e-02 6.509352e-02 8.717363e-02 1.259618e-01 1.916067e-01 2.916923e-01 4.379862e-01 6.240633e-01 8.073518e-01 9.365778e-01 9.816230e-01
  6.227515e-01 5.901263e-01 5.038655e-01 3.924358e-01 2.866429e-01 2.018189e-01 1.390706e-01 9.767878e-02 7.227741e-02 5.698004e-02 4.779361e-02 4.276981e-02 4.113914e-02 4.276981e-02 4.779361e-02 5.698004e-02 7.227741e-02 9.767878e-02 1.390706e-01 2.018189e-01 2.866429e-01 3.924358e-01 5.038655e-01 5.901263e-01 6.227515e-01
  3.613163e-01 3.447064e-01 3.009237e-01 2.441643e-01 1.872919e-01 1.382858e-01 1.018656e-01 7.709784e-02 6.091453e-02 5.043990e-02 4.381172e-02 4.008883e-02 3.888329e-02 4.008883e-02 4.381172e-02 5.043990e-02 6.091453e-02 7.709784e-02 1.018656e-01 1.382858e-01 1.872919e-01 2.441643e-01 3.009237e-01 3.447064e-01 3.613163e-01
  2.122755e-01 2.042812e-01 1.827493e-01 1.534117e-01 1.231310e-01 9.726416e-02 7.724333e-02 6.275389e-02 5.255049e-02 4.550253e-02 4.088734e-02 3.828769e-02 3.745142e-02 3.828769e-02 4.088734e-02 4.550253e-02 5.255049e-02 6.275389e-02 7.724333e-02 9.726416e-02 1.231310e-01 1.534117e-01 1.827493e-01 2.042812e-01 2.122755e-01
  1.276633e-01 1.238361e-01 1.134867e-01 9.959777e-02 8.515496e-02 7.197588e-02 6.123578e-02 5.287685e-02 4.659178e-02 4.207551e-02 3.909620e-02 3.743581e-02 3.690922e-02 3.743581e-02 3.909620e-02 4.207551e-02 4.659178e-02 5.287685e-02 6.123578e-02 7.197588e-02 8.515496e-02 9.959777e-02 1.134867e-01 1.238361e-01 1.276633e-01
  8.178673e-02 8.017804e-02 7.578511e-02 6.952474e-02 6.263815e-02 5.626556e-02 5.068500e-02 4.612985e-02 4.260595e-02 4.006973e-02 3.843139e-02 3.755406e-02 3.728280e-02 3.755406e-02 3.843139e-02 4.006973e-02 4.260595e-02 4.612985e-02 5.068500e-02 5.626556e-02 6.263815e-02 6.952474e-02 7.578511e-02 8.017804e-02 8.178673e-02
  5.681675e-02 5.614846e-02 5.429136e-02 5.174817e-02 4.894708e-02 4.610824e-02 4.366990e-02 4.171559e-02 4.029482e-02 3.937805e-02 3.887013e-02 3.863303e-02 3.856834e-02 3.863303e-02 3.887013e-02 3.937805e-02 4.029482e-02 4.171559e-02 4.366990e-02 4.610824e-02 4.894708e-02 5.174817e-02 5.429136e-02 5.614846e-02 5.681675e-02
  4.218684e-02 4.202039e-02 4.156804e-02 4.084764e-02 4.005146e-02 3.949252e-02 3.915280e-02 3.913334e-02 3.939564e-02 3.982151e-02 4.026276e-02 4.060262e-02 4.072791e-02 4.060262e-02 4.026276e-02 3.982151e-02 3.939564e-02 3.913334e-02 3.915280e-02 3.949252e-02 4.005146e-02 4.084764e-02 4.156804e-02 4.202039e-02 4.218684e-02
  3.311986e-02 3.318014e-02 3.336035e-02 3.377149e-02 3.443484e-02 3.528692e-02 3.648628e-02 3.795721e-02 3.957007e-02 4.114627e-02 4.248959e-02 4.335963e-02 4.365953e-02 4.335963e-02 4.248959e-02 4.114627e-02 3.957007e-02 3.795721e-02 3.648628e-02 3.528692e-02 3.443484e-02 3.377149e-02 3.336035e-02 3.318014e-02 3.311986e-02
  2.747146e-02 2.770161e-02 2.838900e-02 2.943614e-02 3.086853e-02 3.280412e-02 3.511290e-02 3.772882e-02 4.046691e-02 4.307533e-02 4.514913e-02 4.650448e-02 4.698330e-02 4.650448e-02 4.514913e-02 4.307533e-02 4.046691e-02 3.772882e-02 3.511290e-02 3.280412e-02 3.086853e-02 2.943614e-02 2.838900e-02 2.770161e-02 2.747146e-02
  2.404077e-02 2.433638e-02 2.521277e-02 2.671327e-02 2.881249e-02 3.139307e-02 3.453076e-02 3.803603e-02 4.172864e-02 4.511430e-02 4.792355e-02 4.985982e-02 5.053411e-02 4.985982e-02 4.792355e-02 4.511430e-02 4.172864e-02 3.803603e-02 3.453076e-02 3.139307e-02 2.881249e-02 2.671327e-02 2.521277e-02 2.433638e-02 2.404077e-02
  2.201503e-02 2.238236e-02 2.345908e-02 2.517807e-02 2.753335e-02 3.065034e-02 3.434179e-02 3.855467e-02 4.291614e-02 4.699196e-02 5.052933e-02 5.286421e-02 5.368135e-02 5.286421e-02 5.052933e-02 4.699196e-02 4.291614e-02 3.855467e-02 3.434179e-02 3.065034e-02 2.753335e-02 2.517807e-02 2.345908e-02 2.238236e-02 2.201503e-02
  2.092008e-02 2.129294e-02 2.238203e-02 2.426614e-02 2.691144e-02 3.025884e-02 3.432351e-02 3.897999e-02 4.376931e-02 4.837144e-02 5.232054e-02 5.488732e-02 5.579407e-02 5.488732e-02 5.232054e-02 4.837144e-02 4.376931e-02 3.897999e-02 3.432351e-02 3.025884e-02 2.691144e-02 2.426614e-02 2.238203e-02 2.129294e-02 2.092008e-02
  2.056982e-02 2.096684e-02 2.213724e-02 2.403053e-02 2.665669e-02 3.015067e-02 3.433083e-02 3.914159e-02 4.408277e-02 4.887288e-02 5.296720e-02 5.561138e-02 5.654405e-02 5.561138e-02 5.296720e-02 4.887288e-02 4.408277e-02 3.914159e-02 3.433083e-02 3.015067e-02 2.665669e-02 2.403053e-02 2.213724e-02 2.096684e-02 2.056982e-02
  2.092008e-02 2.129294e-02 2.238203e-02 2.426614e-02 2.691144e-02 3.025884e-02 3.432351e-02 3.897999e-02 4.376931e-02 4.837144e-02 5.232054e-02 5.488732e-02 5.579407e-02 5.488732e-02 5.232054e-02 4.837144e-02 4.376931e-02 3.897999e-02 3.432351e-02 3.025884e-02 2.691144e-02 2.426614e-02 2.238203e-02 2.129294e-02 2.092008e-02
  2.201503e-02 2.238236e-02 2.345908e-02 2.517807e-02 2.753335e-02 3.065034e-02 3.434179e-02 3.855467e-02 4.291614e-02 4.699196e-02 5.052933e-02 5.286421e-02 5.368135e-02 5.286421e-02 5.052933e-02 4.699196e-02 4.291614e-02 3.855467e-02 3.434179e-02 3.065034e-02 2.753335e-02 2.517807e-02 2.345908e-02 2.238236e-02 2.201503e-02
  2.404077e-02 2.433638e-02 2.521277e-02 2.671327e-02 2.881249e-02 3.139307e-02 3.453076e-02 3.803603e-02 4.172864e-02 4.511430e-02 4.792355e-02 4.985982e-02 5.053411e-02 4.985982e-02 4.792355e-02 4.511430e-02 4.172864e-02 3.803603e-02 3.453076e-02 3.139307e-02 2.881249e-02 2.671327e-02 2.521277e-02 2.433638e-02 2.404077e-02
  2.747146e-02 2.770161e-02 2.838900e-02 2.943614e-02 3.086853e-02 3.280412e-02 3.511290e-02 3.772882e-02 4.046691e-02 4.307533e-02 4.514913e-02 4.650448e-02 4.698330e-02 4.650448e-02 4.514913e-02 4.307533e-02 4.046691e-02 3.772882e-02 3.511290e-02 3.280412e-02 3.086853e-02 2.943614e-02 2.838900e-02 2.770161e-02 2.747146e-02
  3.311986e-02 3.318014e-02 3.336035e-02 3.377149e-02 3.443484e-02 3.528692e-02 3.648628e-02 3.795721e-02 3.957007e-02 4.114627e-02 4.248959e-02 4.335963e-02 4.365953e-02 4.335963e-02 4.248959e-02 4.114627e-02 3.957007e-02 3.795721e-02 3.648628e-02 3.528692e-02 3.443484e-02 3.377149e-02 3.336035e-02 3.318014e-02 3.311986e-02
  4.218684e-02 4.202039e-02 4.156804e-02 4.084764e-02 4.005146e-02 3.949252e-02 3.915280e-02 3.913334e-02 3.939564e-02 3.982151e-02 4.026276e-02 4.060262e-02 4.072791e-02 4.060262e-02 4.026276e-02 3.982151e-02 3.939564e-02 3.913334e-02 3.915280e-02 3.949252e-02 4.005146e-02 4.084764e-02 4.156804e-02 4.202039e-02 4.218684e-02
  5.681675e-02 5.614846e-02 5.429136e-02 5.174817e-02 4.894708e-02 4.610824e-02 4.366990e-02 4.171559e-02 4.029482e-02 3.937805e-02 3.887013e-02 3.863303e-02 3.856834e-02 3.863303e-02 3.887013e-02 3.937805e-02 4.029482e-02 4.171559e-02 4.366990e-02 4.610824e-02 4.894708e-02 5.174817e-02 5.429136e-02 5.614846e-02 5.681675e-02
  8.178673e-02 8.017804e-02 7.578511e-02 6.952474e-02 6.263815e-02 5.626556e-02 5.068500e-02 4.612985e-02 4.260595e-02 4.006973e-02 3.843139e-02 3.755406e-02 3.728280e-02 3.755406e-02 3.843139e-02 4.006973e-02 4.260595e-02 4.612985e-02 5.068500e-02 5.626556e-02 6.263815e-02 6.952474e-02 7.578511e-02 8.017804e-02 8.178673e-02
  1.276633e-01 1.238361e-01 1.134867e-01 9.959777e-02 8.515496e-02 7.197588e-02 6.123578e-02 5.287685e-02 4.659178e-02 4.207551e-02 3.909620e-02 3.743581e-02 3.690922e-02 3.743581e-02 3.909620e-02 4.207551e-02 4.659178e-02 5.287685e-02 6.123578e-02 7.197588e-02 8.515496e-02 9.959777e-02 1.134867e-01 1.238361e-01 1.276633e-01
  2.122755e-01 2.042812e-01 1.827493e-01 1.534117e-01 1.231310e-01 9.726416e-02 7.724333e-02 6.275389e-02 5.255049e-02 4.550253e-02 4.088734e-02 3.828769e-02 3.745142e-02 3.828769e-02 4.088734e-02 4.550253e-02 5.255049e-02 6.275389e-02 7.724333e-02 9.726416e-02 1.231310e-01 1.534117e-01 1.827493e-01 2.042812e-01 2.122755e-01
  3.613163e-01 3.447064e-01 3.009237e-01 2.441643e-01 1.872919e-01 1.382858e-01 1.018656e-01 7.709784e-02 6.091453e-02 5.043990e-02 4.381172e-02 4.008883e-02 3.888329e-02 4.008883e-02 4.381172e-02 5.043990e-02 6.091453e-02 7.709784e-02 1.018656e-01 1.382858e-01 1.872919e-01 2.441643e-01 3.009237e-01 3.447064e-01 3.613163e-01
  6.227515e-01 5.901263e-01 5.038655e-01 3.924358e-01 2.866429e-01 2.018189e-01 1.390706e-01 9.767878e-02 7.227741e-02 5.698004e-02 4.779361e-02 4.276981e-02 4.113914e-02 4.276981e-02 4.779361e-02 5.698004e-02 7.227741e-02 9.767878e-02 1.390706e-01 2.018189e-01 2.866429e-01 3.924358e-01 5.038655e-01 5.901263e-01 6.227515e-01
  9.816230e-01 9.365778e-01 8.073518e-01 6.240633e-01 4.379862e-01 2.916923e-01 1.916067e-01 1.259618e-01 8.717363e-02 6.509352e-02 5.274512e-02 4.614280e-02 4.411519e-02 4.614280e-02 5.274512e-02 6.509352e-02 8.717363e-02 1.259618e-01 1.916067e-01 2.916923e-01 4.379862e-01 6.240633e-01 8.073518e-01 9.365778e-01 9.816230e-01
  1.210683e+00 1.194059e+00 1.106505e+00 9.069459e-01 6.455402e-01 4.140929e-01 2.579296e-01 1.620651e-01 1.052029e-01 7.470628e-02 5.819203e-02 5.009120e-02 4.739766e-02 5.009120e-02 5.819203e-02 7.470628e-02 1.052029e-01 1.620651e-01 2.579296e-01 4.140929e-01 6.455402e-01 9.069459e-01 1.106505e+00 1.194059e+00 1.210683e+00
  9.192972e-01 1.016792e+00 1.164874e+00 1.125769e+00 8.690149e-01 5.613868e-01 3.350891e-01 2.019270e-01 1.253625e-01 8.466485e-02 6.391589e-02 5.392618e-02 5.085789e-02 5.392618e-02 6.391589e-02 8.466485e-02 1.253625e-01 2.019270e-01 3.350891e-01 5.613868e-01 8.690149e-01 1.125769e+00 1.164874e+00 1.016792e+00 9.192972e-01
  -2.572037e-02 2.666203e-01 8.434840e-01 1.167156e+00 1.044094e+00 7.037950e-01 4.124169e-01 2.395239e-01 1.444019e-01 9.369022e-02 6.903647e-02 5.720368e-02 5.391883e-02 5.720368e-02 6.903647e-02 9.369022e-02 1.444019e-01 2.395239e-01 4.124169e-01 7.037950e-01 1.044094e+00 1.167156e+00 8.434840e-01 2.666203e-01 -2.572037e-02
  -1.155169e+00 -6.685343e-01 3.485086e-01 1.071046e+00 1.134846e+00 8.056088e-01 4.708738e-01 2.672622e-01 1.580551e-01 1.002097e-01 7.253121e-02 5.951346e-02 5.595110e-02 5.951346e-02 7.253121e-02 1.002097e-01 1.580551e-01 2.672622e-01 4.708738e-01 8.056088e-01 1.134846e+00 1.071046e+00 3.485086e-01 -6.685343e-01 -1.155169e+00
  -1.665558e+00 -1.096794e+00 1.083079e-01 1.006453e+00 1.159068e+00 8.419694e-01 4.928055e-01 2.775499e-01 1.630502e-01 1.025881e-01 7.378261e-02 6.033836e-02 5.667272e-02 6.033836e-02 7.378261e-02 1.025881e-01 1.630502e-01 2.775499e-01 4.928055e-01 8.419694e-01 1.159068e+00 1.006453e+00 1.083079e-01 -1.096794e+00 -1.665558e+00
  -1.094407e+00 -6.154470e-01 3.834894e-01 1.087985e+00 1.141008e+00 8.071640e-01 4.712522e-01 2.673871e-01 1.579809e-01 1.000789e-01 7.235703e-02 5.932910e-02 5.575084e-02 5.932910e-02 7.235703e-02 1.000789e-01 1.579809e-01 2.673871e-01 4.712522e-01 8.071640e-01 1.141008e+00 1.087985e+00 3.834894e-01 -6.154470e-01 -1.094407e+00
  -6.664712e-01 -2.592996e-01 5.764294e-01 1.131029e+00 1.111662e+00 7.715146e-01 4.504480e-01 2.576207e-01 1.532002e-01 9.781827e-02 7.114850e-02 5.854539e-02 5.505446e-02 5.854539e-02 7.114850e-02 9.781827e-02 1.532002e-01 2.576207e-01 4.504480e-01 7.715146e-01 1.111662e+00 1.131029e+00 5.764294e-01 -2.592996e-01 -6.664712e-01
  2.679037e-01 5.062467e-01 9.622708e-01 1.179707e+00 1.011371e+00 6.725886e-01 3.951027e-01 2.312240e-01 1.401551e-01 9.160379e-02 6.780294e-02 5.634216e-02 5.310849e-02 5.634216e-02 6.780294e-02 9.160379e-02 1.401551e-01 2.312240e-01 3.951027e-01 6.725886e-01 1.011371e+00 1.179707e+00 9.622708e-01 5.062467e-01 2.679037e-01
  1.017238e+00 1.088428e+00 1.180527e+00 1.098905e+00 8.328573e-01 5.360438e-01 3.219388e-01 1.953518e-01 1.219837e-01 8.299103e-02 6.289785e-02 5.321591e-02 5.018649e-02 5.321591e-02 6.289785e-02 8.299103e-02 1.219837e-01 1.953518e-01 3.219388e-01 5.360438e-01 8.328573e-01 1.098905e+00 1.180527e+00 1.088428e+00 1.017238e+00
  1.194016e+00 1.170436e+00 1.070605e+00 8.680095e-01 6.153873e-01 3.963065e-01 2.487967e-01 1.572065e-01 1.027935e-01 7.344198e-02 5.745546e-02 4.953915e-02 4.691816e-02 4.953915e-02 5.745546e-02 7.344198e-02 1.027935e-01 1.572065e-01 2.487967e-01 3.963065e-01 6.153873e-01 8.680095e-01 1.070605e+00 1.170436e+00 1.194016e+00
  9.363792e-01 8.924146e-01 7.677367e-01 5.934378e-01 4.182212e-01 2.806592e-01 1.855043e-01 1.227414e-01 8.557584e-02 6.424599e-02 5.224587e-02 4.578692e-02 4.380920e-02 4.578692e-02 5.224587e-02 6.424599e-02 8.557584e-02 1.227414e-01 1.855043e-01 2.806592e-01 4.182212e-01 5.934378e-01 7.677367e-01 8.924146e-01 9.363792e-01
  5.899566e-01 5.594063e-01 4.787862e-01 3.746936e-01 2.755366e-01 1.951509e-01 1.353067e-01 9.576013e-02 7.130739e-02 5.648972e-02 4.752242e-02 4.261134e-02 4.100587e-02 4.261134e-02 4.752242e-02 5.648972e-02 7.130739e-02 9.576013e-02 1.353067e-01 1.951509e-01 2.755366e-01 3.746936e-01 4.787862e-01 5.594063e-01 5.899566e-01
  3.446188e-01 3.291587e-01 2.882720e-01 2.349673e-01 1.810888e-01 1.345081e-01 9.981731e-02 7.605507e-02 6.042977e-02 5.023457e-02 4.376108e-02 4.011637e-02 3.894172e-02 4.011637e-02 4.376108e-02 5.023457e-02 6.042977e-02 7.605507e-02 9.981731e-02 1.345081e-01 1.810888e-01 2.349673e-01 2.882720e-01 3.291587e-01 3.446188e-01
  2.042362e-01 1.966955e-01 1.763679e-01 1.486039e-01 1.199558e-01 9.539048e-02 7.624195e-02 6.230844e-02 5.242124e-02 4.556813e-02 4.106890e-02 3.853428e-02 3.771586e-02 3.853428e-02 4.106890e-02 4.556813e-02 5.242124e-02 6.230844e-02 7.624195e-02 9.539048e-02 1.199558e-01 1.486039e-01 1.763679e-01 1.966955e-01 2.042362e-01
  1.238209e-01 1.202283e-01 1.104942e-01 9.741208e-02 8.371061e-02 7.115085e-02 6.088118e-02 5.283709e-02 4.677797e-02 4.241170e-02 3.953389e-02 3.793570e-02 3.743224e-02 3.793570e-02 3.953389e-02 4.241170e-02 4.677797e-02 5.283709e-02 6.088118e-02 7.115085e-02 8.371061e-02 9.741208e-02 1.104942e-01 1.202283e-01 1.238209e-01
  8.017635e-02 7.865803e-02 7.451335e-02 6.858425e-02 6.207845e-02 5.604294e-02 5.073867e-02 4.642523e-02 4.309125e-02 4.071163e-02 3.918646e-02 3.837033e-02 3.811698e-02 3.837033e-02 3.918646e-02 4.071163e-02 4.309125e-02 4.642523e-02 5.073867e-02 5.604294e-02 6.207845e-02 6.858425e-02 7.451335e-02 7.865803e-02 8.017635e-02
  5.615657e-02 5.553833e-02 5.381434e-02 5.146443e-02 4.886147e-02 4.624528e-02 4.404496e-02 4.231238e-02 4.110407e-02 4.035640e-02 3.997057e-02 3.981888e-02 3.978512e-02 3.981888e-02 3.997057e-02 4.035640e-02 4.110407e-02 4.231238e-02 4.404496e-02 4.624528e-02 4.886147e-02 5.146443e-02 5.381434e-02 5.553833e-02 5.615657e-02
  4.203204e-02 4.188431e-02 4.149316e-02 4.087761e-02 4.025506e-02 3.990630e-02 3.979922e-02 4.003706e-02 4.053448e-02 4.117938e-02 4.180110e-02 4.223193e-02 4.238412e-02 4.223193e-02 4.180110e-02 4.117938e-02 4.053448e-02 4.003706e-02 3.979922e-02 3.990630e-02 4.025506e-02 4.087761e-02 4.149316e-02 4.188431e-02 4.203204e-02
  3.319584e-02 3.327394e-02 3.351178e-02 3.403090e-02 3.484650e-02 3.591656e-02 3.739418e-02 3.915292e-02 4.107457e-02 4.291255e-02 4.441115e-02 4.541351e-02 4.576808e-02 4.541351e-02 4.441115e-02 4.291255e-02 4.107457e-02 3.915292e-02 3.739418e-02 3.591656e-02 3.484650e-02 3.403090e-02 3.351178e-02 3.327394e-02 3.319584e-02
  2.771828e-02 2.795785e-02 2.868220e-02 2.982255e-02 3.143642e-02 3.363115e-02 3.624701e-02 3.922852e-02 4.231590e-02 4.519290e-02 4.762684e-02 4.923809e-02 4.979200e-02 4.923809e-02 4.762684e-02 4.519290e-02 4.231590e-02 3.922852e-02 3.624701e-02 3.363115e-02 3.143642e-02 2.982255e-02 2.868220e-02 2.795785e-02 2.771828e-02
  2.435522e-02 2.466821e-02 2.559310e-02 2.721516e-02 2.950119e-02 3.237440e-02 3.587487e-02 3.980906e-02 4.385286e-02 4.776670e-02 5.099337e-02 5.304736e-02 5.377199e-02 5.304736e-02 5.099337e-02 4.776670e-02 4.385286e-02 3.980906e-02 3.587487e-02 3.237440e-02 2.950119e-02 2.721516e-02 2.559310e-02 2.466821e-02 2.435522e-02
  2.240121e-02 2.276822e-02 2.390036e-02 2.572347e-02 2.832039e-02 3.174604e-02 3.587220e-02 4.050493e-02 4.538278e-02 5.008213e-02 5.383492e-02 5.635139e-02 5.723676e-02 5.635139e-02 5.383492e-02 5.008213e-02 4.538278e-02 4.050493e-02 3.587220e-02 3.174604e-02 2.832039e-02 2.572347e-02 2.390036e-02 2.276822e-02 2.240121e-02
  2.131305e-02 2.169262e-02 2.285188e-02 2.486470e-02 2.775441e-02 3.142987e-02 3.597027e-02 4.105638e-02 4.650131e-02 5.164679e-02 5.582831e-02 5.868306e-02 5.968423e-02 5.868306e-02 5.582831e-02 5.164679e-02 4.650131e-02 4.105638e-02 3.597027e-02 3.142987e-02 2.775441e-02 2.486470e-02 2.285188e-02 2.169262e-02 2.131305e-02
  2.098632e-02 2.138452e-02 2.261702e-02 2.462830e-02 2.751876e-02 3.135399e-02 3.601308e-02 4.126833e-02 4.690651e-02 5.220966e-02 5.653804e-02 5.951814e-02 6.056252e-02 5.951814e-02 5.653804e-02 5.220966e-02 4.690651e-02 4.126833e-02 3.601308e-02 3.135399e-02 2.751876e-02 2.462830e-02 2.261702e-02 2.138452e-02 2.098632e-02
  2.131305e-02 2.169262e-02 2.285188e-02 2.486470e-02 2.775441e-02 3.142987e-02 3.597027e-02 4.105638e-02 4.650131e-02 5.164679e-02 5.582831e-02 5.868306e-02 5.968423e-02 5.868306e-02 5.582831e-02 5.164679e-02 4.650131e-02 4.105638e-02 3.597027e-02 3.142987e-02 2.775441e-02 2.486470e-02 2.285188e-02 2.169262e-02 2.131305e-02
  2.240121e-02 2.276822e-02 2.390036e-02 2.572347e-02 2.832039e-02 3.174604e-02 3.587220e-02 4.050493e-02 4.538278e-02 5.008213e-02 5.383492e-02 5.635139e-02 5.723676e-02 5.635139e-02 5.383492e-02 5.008213e-02 4.538278e-02 4.050493e-02 3.587220e-02 3.174604e-02 2.832039e-02 2.572347e-02 2.390036e-02 2.276822e-02 2.240121e-02
  2.435522e-02 2.466821e-02 2.559310e-02 2.721516e-02 2.950119e-02 3.237440e-02 3.587487e-02 3.980906e-02 4.385286e-02 4.776670e-02 5.099337e-02 5.304736e-02 5.377199e-02 5.304736e-02 5.099337e-02 4.776670e-02 4.385286e-02 3.980906e-02 3.587487e-02 3.237440e-02 2.950119e-02 2.721516e-02 2.559310e-02 2.466821e-02 2.435522e-02
  2.771828e-02 2.795785e-02 2.868220e-02 2.982255e-02 3.143642e-02 3.363115e-02 3.624701e-02 3.922852e-02 4.231590e-02 4.519290e-02 4.762684e-02 4.923809e-02 4.979200e-02 4.923809e-02 4.762684e-02 4.519290e-02 4.231590e-02 3.922852e-02 3.624701e-02 3.363115e-02 3.143642e-02 2.982255e-02 2.868220e-02 2.795785e-02 2.771828e-02
  3.319584e-02 3.327394e-02 3.351178e-02 3.403090e-02 3.484650e-02 3.591656e-02 3.739418e-02 3.915292e-02 4.107457e-02 4.291255e-02 4.441115e-02 4.541351e-02 4.576808e-02 4.541351e-02 4.441115e-02 4.291255e-02 4.107457e-02 3.915292e-02 3.739418e-02 3.591656e-02 3.484650e-02 3.403090e-02 3.351178e-02 3.327394e-02 3.319584e-02
  4.203204e-02 4.188431e-02 4.149316e-02 4.087761e-02 4.025506e-02 3.990630e-02 3.979922e-02 4.003706e-02 4.053448e-02 4.117938e-02 4.180110e-02 4.223193e-02 4.238412e-02 4.223193e-02 4.180110e-02 4.117938e-02 4.053448e-02 4.003706e-02 3.979922e-02 3.990630e-02 4.025506e-02 4.087761e-02 4.149316e-02 4.188431e-02 4.203204e-02
  5.615657e-02 5.553833e-02 5.381434e-02 5.146443e-02 4.886147e-02 4.624528e-02 4.404496e-02 4.231238e-02 4.110407e-02 4.035640e-02 3.997057e-02 3.981888e-02 3.978512e-02 3.981888e-02 3.997057e-02 4.035640e-02 4.110407e-02 4.231238e-02 4.404496e-02 4.624528e-02 4.886147e-02 5.146443e-02 5.381434e-02 5.553833e-02 5.615657e-02
  8.017635e-02 7.865803e-02 7.451335e-02 6.858425e-02 6.207845e-02 5.604294e-02 5.073867e-02 4.642523e-02 4.309125e-02 4.071163e-02 3.918646e-02 3.837033e-02 3.811698e-02 3.837033e-02 3.918646e-02 4.071163e-02 4.309125e-02 4.642523e-02 5.073867e-02 5.604294e-02 6.207845e-02 6.858425e-02 7.451335e-02 7.865803e-02 8.017635e-02
  1.238209e-01 1.202283e-01 1.104942e-01 9.741208e-02 8.371061e-02 7.115085e-02 6.088118e-02 5.283709e-02 4.677797e-02 4.241170e-02 3.953389e-02 3.793570e-02 3.743224e-02 3.793570e-02 3.953389e-02 4.241170e-02 4.677797e-02 5.283709e-02 6.088118e-02 7.115085e-02 8.371061e-02 9.741208e-02 1.104942e-01 1.202283e-01 1.238209e-01
  2.042362e-01 1.966955e-01 1.763679e-01 1.486039e-01 1.199558e-01 9.539048e-02 7.624195e-02 6.230844e-02 5.242124e-02 4.556813e-02 4.106890e-02 3.853428e-02 3.771586e-02 3.853428e-02 4.106890e-02 4.556813e-02 5.242124e-02 6.230844e-02 7.624195e-02 9.539048e-02 1.199558e-01 1.486039e-01 1.763679e-01 1.966955e-01 2.042362e-01
  3.446188e-01 3.291587e-01 2.882720e-01 2.349673e-01 1.810888e-01 1.345081e-01 9.981731e-02 7.605507e-02 6.042977e-02 5.023457e-02 4.376108e-02 4.011637e-02 3.894172e-02 4.011637e-02 4.376108e-02 5.023457e-02 6.042977e-02 7.605507e-02 9.981731e-02 1.345081e-01 1.810888e-01 2.349673e-01 2.882720e-01 3.291587e-01 3.446188e-01
  5.899566e-01 5.594063e-01 4.787862e-01 3.746936e-01 2.755366e-01 1.951509e-01 1.353067e-01 9.576013e-02 7.130739e-02 5.648972e-02 4.752242e-02 4.261134e-02 4.100587e-02 4.261134e-02 4.752242e-02 5.648972e-02 7.130739e-02 9.576013e-02 1.353067e-01 1.951509e-01 2.755366e-01 3.746936e-01 4.787862e-01 5.594063e-01 5.899566e-01
  9.363792e-01 8.924146e-01 7.677367e-01 5.934378e-01 4.182212e-01 2.806592e-01 1.855043e-01 1.227414e-01 8.557584e-02 6.424599e-02 5.224587e-02 4.578692e-02 4.380920e-02 4.578692e-02 5.224587e-02 6.424599e-02 8.557584e-02 1.227414e-01 1.855043e-01 2.806592e-01 4.182212e-01 5.934378e-01 7.677367e-01 8.924146e-01 9.363792e-01
  1.194016e+00 1.170436e+00 1.070605e+00 8.680095e-01 6.153873e-01 3.963065e-01 2.487967e-01 1.572065e-01 1.027935e-01 7.344198e-02 5.745546e-02 4.953915e-02 4.691816e-02 4.953915e-02 5.745546e-02 7.344198e-02 1.027935e-01 1.572065e-01 2.487967e-01 3.963065e-01 6.153873e-01 8.680095e-01 1.070605e+00 1.170436e+00 1.194016e+00
  1.017238e+00 1.088428e+00 1.180527e+00 1.098905e+00 8.328573e-01 5.360438e-01 3.219388e-01 1.953518e-01 1.219837e-01 8.299103e-02 6.289785e-02 5.321591e-02 5.018649e-02 5.321591e-02 6.289785e-02 8.299103e-02 1.219837e-01 1.953518e-01 3.219388e-01 5.360438e-01 8.328573e-01 1.098905e+00 1.180527e+00 1.088428e+00 1.017238e+00
  2.679037e-01 5.062467e-01 9.622708e-01 1.179707e+00 1.011371e+00 6.725886e-01 3.951027e-01 2.312240e-01 1.401551e-01 9.160379e-02 6.780294e-02 5.634216e-02 5.310849e-02 5.634216e-02 6.780294e-02 9.160379e-02 1.401551e-01 2.312240e-01 3.951027e-01 6.725886e-01 1.011371e+00 1.179707e+00 9.622708e-01 5.062467e-01 2.679037e-01
  -6.664712e-01 -2.592996e-01 5.764294e-01 1.131029e+00 1.111662e+00 7.715146e-01 4.504480e-01 2.576207e-01 1.532002e-01 9.781827e-02 7.114850e-02 5.854539e-02 5.505446e-02 5.854539e-02 7.114850e-02 9.781827e-02 1.532002e-01 2.576207e-01 4.504480e-01 7.715146e-01 1.111662e+00 1.131029e+00 5.764294e-01 -2.592996e-01 -6.664712e-01
  -1.094407e+00 -6.154470e-01 3.834894e-01 1.087985e+00 1.141008e+00 8.071640e-01 4.712522e-01 2.673871e-01 1.579809e-01 1.000789e-01 7.235703e-02 5.932910e-02 5.575084e-02 5.932910e-02 7.235703e-02 1.000789e-01 1.579809e-01 2.673871e-01 4.712522e-01 8.071640e-01 1.141008e+00 1.087985e+00 3.834894e-01 -6.154470e-01 -1.094407e+00
  1.145251e-01 3.875019e-01 9.199024e-01 1.201407e+00 1.053865e+00 7.054109e-01 4.126970e-01 2.394548e-01 1.439414e-01 9.307337e-02 6.833705e-02 5.643444e-02 5.313559e-02 5.643444e-02 6.833705e-02 9.307337e-02 1.439414e-01 2.394548e-01 4.126970e-01 7.054109e-01 1.053865e+00 1.201407e+00 9.199024e-01 3.875019e-01 1.145251e-01
  3.538118e-01 5.798360e-01 1.007996e+00 1.199165e+00 1.016016e+00 6.730789e-01 3.950490e-01 2.310813e-01 1.397561e-01 9.113485e-02 6.726248e-02 5.576933e-02 5.251106e-02 5.576933e-02 6.726248e-02 9.113485e-02 1.397561e-01 2.310813e-01 3.950490e-01 6.730789e-01 1.016016e+00 1.199165e+00 1.007996e+00 5.798360e-01 3.538118e-01
  8.465942e-01 9.642313e-01 1.155678e+00 1.151165e+00 9.021951e-01 5.852086e-01 3.481610e-01 2.083467e-01 1.283596e-01 8.579391e-02 6.428345e-02 5.389503e-02 5.077841e-02 5.389503e-02 6.428345e-02 8.579391e-02 1.283596e-01 2.083467e-01 3.481610e-01 5.852086e-01 9.021951e-01 1.151165e+00 1.155678e+00 9.642313e-01 8.465942e-01
  1.165755e+00 1.181013e+00 1.157792e+00 9.962237e-01 7.270394e-01 4.669836e-01 2.862083e-01 1.771517e-01 1.126023e-01 7.830438e-02 5.999740e-02 5.119404e-02 4.825105e-02 5.119404e-02 5.999740e-02 7.830438e-02 1.126023e-01 1.771517e-01 2.862083e-01 4.669836e-01 7.270394e-01 9.962237e-01 1.157792e+00 1.181013e+00 1.165755e+00
  1.106051e+00 1.070204e+00 9.515512e-01 7.546947e-01 5.329344e-01 3.484084e-01 2.238033e-01 1.437024e-01 9.613111e-02 6.983972e-02 5.536394e-02 4.792580e-02 4.556134e-02 4.792580e-02 5.536394e-02 6.983972e-02 9.613111e-02 1.437024e-01 2.238033e-01 3.484084e-01 5.329344e-01 7.546947e-01 9.515512e-01 1.070204e+00 1.106051e+00
  8.065826e-01 7.671810e-01 6.585563e-01 5.110615e-01 3.654285e-01 2.508018e-01 1.686125e-01 1.138659e-01 8.107634e-02 6.185271e-02 5.080207e-02 4.477769e-02 4.291370e-02 4.477769e-02 5.080207e-02 6.185271e-02 8.107634e-02 1.138659e-01 1.686125e-01 2.508018e-01 3.654285e-01 5.110615e-01 6.585563e-01 7.671810e-01 8.065826e-01
  5.033101e-01 4.783928e-01 4.126599e-01 3.276560e-01 2.456525e-01 1.768143e-01 1.249665e-01 9.041711e-02 6.858484e-02 5.508518e-02 4.674598e-02 4.215979e-02 4.064396e-02 4.215979e-02 4.674598e-02 5.508518e-02 6.858484e-02 9.041711e-02 1.249665e-01 1.768143e-01 2.456525e-01 3.276560e-01 4.126599e-01 4.783928e-01 5.033101e-01
  3.006152e-01 2.880515e-01 2.545823e-01 2.101649e-01 1.641179e-01 1.241907e-01 9.415573e-02 7.315405e-02 5.906756e-02 4.967674e-02 4.366138e-02 4.024576e-02 3.915483e-02 4.024576e-02 4.366138e-02 4.967674e-02 5.906756e-02 7.315405e-02 9.415573e-02 1.241907e-01 1.641179e-01 2.101649e-01 2.545823e-01 2.880515e-01 3.006152e-01
  1.825986e-01 1.762603e-01 1.590789e-01 1.355192e-01 1.113375e-01 9.022991e-02 7.348272e-02 6.108634e-02 5.211088e-02 4.582223e-02 4.166021e-02 3.933024e-02 3.857342e-02 3.933024e-02 4.166021e-02 4.582223e-02 5.211088e-02 6.108634e-02 7.348272e-02 9.022991e-02 1.113375e-01 1.355192e-01 1.590789e-01 1.762603e-01 1.825986e-01
  1.134298e-01 1.104534e-01 1.023907e-01 9.147745e-02 7.972163e-02 6.890051e-02 5.993525e-02 5.280611e-02 4.740385e-02 4.349519e-02 4.093828e-02 3.951557e-02 3.907379e-02 3.951557e-02 4.093828e-02 4.349519e-02 4.740385e-02 5.280611e-02 5.993525e-02 6.890051e-02 7.972163e-02 9.147745e-02 1.023907e-01 1.104534e-01 1.134298e-01
  7.578389e-02 7.451298e-02 7.101105e-02 6.597519e-02 6.057482e-02 5.547312e-02 5.099075e-02 4.738660e-02 4.463277e-02 4.271445e-02 4.151004e-02 4.089778e-02 4.070900e-02 4.089778e-02 4.151004e-02 4.271445e-02 4.463277e-02 4.738660e-02 5.099075e-02 5.547312e-02 6.057482e-02 6.597519e-02 7.101105e-02 7.451298e-02 7.578389e-02
  5.431947e-02 5.383498e-02 5.250513e-02 5.072170e-02 4.866857e-02 4.674433e-02 4.524667e-02 4.419074e-02 4.360587e-02 4.338260e-02 4.339988e-02 4.347780e-02 4.352274e-02 4.347780e-02 4.339988e-02 4.338260e-02 4.360587e-02 4.419074e-02 4.524667e-02 4.674433e-02 4.866857e-02 5.072170e-02 5.250513e-02 5.383498e-02 5.431947e-02
  4.161480e-02 4.152771e-02 4.130857e-02 4.100639e-02 4.094777e-02 4.121786e-02 4.182963e-02 4.282760e-02 4.406072e-02 4.534805e-02 4.645400e-02 4.722177e-02 4.749029e-02 4.722177e-02 4.645400e-02 4.534805e-02 4.406072e-02 4.282760e-02 4.182963e-02 4.121786e-02 4.094777e-02 4.100639e-02 4.130857e-02 4.152771e-02 4.161480e-02
  3.341766e-02 3.355392e-02 3.399169e-02 3.487200e-02 3.613719e-02 3.790171e-02 4.019965e-02 4.285780e-02 4.567161e-02 4.834273e-02 5.058498e-02 5.203978e-02 5.254677e-02 5.203978e-02 5.058498e-02 4.834273e-02 4.567161e-02 4.285780e-02 4.019965e-02 3.790171e-02 3.613719e-02 3.487200e-02 3.399169e-02 3.355392e-02 3.341766e-02
  2.845423e-02 2.873034e-02 2.958583e-02 3.102216e-02 3.323792e-02 3.619286e-02 3.976947e-02 4.382292e-02 4.804371e-02 5.207549e-02 5.533752e-02 5.750107e-02 5.826526e-02 5.750107e-02 5.533752e-02 5.207549e-02 4.804371e-02 4.382292e-02 3.976947e-02 3.619286e-02 3.323792e-02 3.102216e-02 2.958583e-02 2.873034e-02 2.845423e-02
  2.528232e-02 2.564421e-02 2.677134e-02 2.878943e-02 3.165573e-02 3.541814e-02 4.004051e-02 4.523738e-02 5.075352e-02 5.591797e-02 6.028496e-02 6.330897e-02 6.437683e-02 6.330897e-02 6.028496e-02 5.591797e-02 5.075352e-02 4.523738e-02 4.004051e-02 3.541814e-02 3.165573e-02 2.878943e-02 2.677134e-02 2.564421e-02 2.528232e-02