
*************** JDFTx 1.4.2  ***************

Start date and time: Mon Mar 11 15:35:58 2019
Executable jdftx with command-line: -i Solvated.in
Running on hosts (process indices):  dhcp-ccc-9638.eduroam.cornell.edu (0)
Divided in process groups (process indices):  0 (0)
Resource initialization completed at t[s]:      0.00
Run totals: 1 processes, 12 threads, 0 GPUs


Input parsed successfully to the following command list (including defaults):

basis kpoint-dependent
coords-type Lattice
core-overlap-check vector
coulomb-interaction Slab 001
coulomb-truncation-embed 0 0 0
davidson-band-ratio 1.1
dump End State ElecDensity Ecomponents
dump-name $INPUT.$VAR
elec-cutoff 20 100
elec-eigen-algo Davidson
elec-ex-corr gga-PBEsol
elec-smearing Fermi 0.01
electronic-minimize  \
	dirUpdateScheme      FletcherReeves \
	linminMethod         DirUpdateRecommended \
	nIterations          100 \
	history              15 \
	knormThreshold       0 \
	energyDiffThreshold  1e-08 \
	nEnergyDiff          2 \
	alphaTstart          1 \
	alphaTmin            1e-10 \
	updateTestStepSize   yes \
	alphaTreduceFactor   0.1 \
	alphaTincreaseFactor 3 \
	nAlphaAdjustMax      3 \
	wolfeEnergy          0.0001 \
	wolfeGradient        0.9 \
	fdTest               no
electronic-scf  \
	nIterations	50 \
	energyDiffThreshold	1e-08 \
	residualThreshold	1e-07 \
	mixFraction	0.5 \
	qMetric	0.8 \
	history	10 \
	nEigSteps	2 \
	eigDiffThreshold	1e-08 \
	mixedVariable	Density \
	qKerker	0.8 \
	qKappa	-1 \
	verbose	no \
	mixFractionMag	1.5
exchange-regularization WignerSeitzTruncated
fluid LinearPCM 298.000000 1.013250
fluid-anion F- 1 MeanFieldLJ \
	epsBulk 1 \
	pMol 0 \
	epsInf 1 \
	Pvap 0 \
	sigmaBulk 0 \
	Rvdw 2.24877 \
	Res 0
fluid-cation Na+ 1 MeanFieldLJ \
	epsBulk 1 \
	pMol 0 \
	epsInf 1 \
	Pvap 0 \
	sigmaBulk 0 \
	Rvdw 2.19208 \
	Res 0
fluid-ex-corr lda-TF lda-PZ
fluid-gummel-loop 10 1.000000e-05
fluid-minimize  \
	dirUpdateScheme      PolakRibiere \
	linminMethod         DirUpdateRecommended \
	nIterations          400 \
	history              15 \
	knormThreshold       1e-11 \
	energyDiffThreshold  0 \
	nEnergyDiff          2 \
	alphaTstart          1 \
	alphaTmin            1e-10 \
	updateTestStepSize   yes \
	alphaTreduceFactor   0.1 \
	alphaTincreaseFactor 3 \
	nAlphaAdjustMax      6 \
	wolfeEnergy          0.0001 \
	wolfeGradient        0.9 \
	fdTest               no
fluid-solvent H2O 55.338 ScalarEOS \
	epsBulk 78.4 \
	pMol 0.92466 \
	epsInf 1.77 \
	Pvap 1.06736e-10 \
	sigmaBulk 4.62e-05 \
	Rvdw 2.61727 \
	Res 1.42
forces-output-coords Positions
initial-state 110-Vacuum.$VAR
ion Pt   0.000000000000000   0.000000000000000  -0.187130000000000 1
ion Pt   0.500000000000000   0.500000000000000  -0.093565000000000 1
ion Pt   0.000000000000000   0.000000000000000   0.000000000000000 1
ion Pt   0.500000000000000   0.500000000000000   0.093565000000000 1
ion Pt   0.000000000000000   0.000000000000000   0.187130000000000 1
ion-species GBRV/$ID_pbesol.uspp
ion-width Ecut
ionic-minimize  \
	dirUpdateScheme      L-BFGS \
	linminMethod         DirUpdateRecommended \
	nIterations          0 \
	history              15 \
	knormThreshold       0.0001 \
	energyDiffThreshold  1e-06 \
	nEnergyDiff          2 \
	alphaTstart          1 \
	alphaTmin            1e-10 \
	updateTestStepSize   yes \
	alphaTreduceFactor   0.1 \
	alphaTincreaseFactor 3 \
	nAlphaAdjustMax      3 \
	wolfeEnergy          0.0001 \
	wolfeGradient        0.9 \
	fdTest               no
kpoint   0.000000000000   0.000000000000   0.000000000000  1.00000000000000
kpoint-folding 12 12 1 
latt-move-scale 1 1 1
latt-scale 1 1 1 
lattice Orthorhombic 5.23966 7.41 28
lattice-minimize  \
	dirUpdateScheme      L-BFGS \
	linminMethod         DirUpdateRecommended \
	nIterations          0 \
	history              15 \
	knormThreshold       0 \
	energyDiffThreshold  1e-06 \
	nEnergyDiff          2 \
	alphaTstart          1 \
	alphaTmin            1e-10 \
	updateTestStepSize   yes \
	alphaTreduceFactor   0.1 \
	alphaTincreaseFactor 3 \
	nAlphaAdjustMax      3 \
	wolfeEnergy          0.0001 \
	wolfeGradient        0.9 \
	fdTest               no
lcao-params -1 1e-06 0.01
pcm-variant CANDLE
spintype no-spin
subspace-rotation-factor 1 yes
symmetries automatic
symmetry-threshold 0.0001



---------- Setting up symmetries ----------

Found 8 point-group symmetries of the bravais lattice
Found 8 space-group symmetries with basis
Applied RMS atom displacement 0 bohrs to make symmetries exact.

---------- Initializing the Grid ----------
R = 
[    5.23966          0          0  ]
[          0       7.41          0  ]
[          0          0         28  ]
unit cell volume = 1087.12
G =
[    1.19916          0          0  ]
[          0   0.847933          0  ]
[          0          0   0.224399  ]
Minimum fftbox size, Smin = [  24  36  128  ]
Chosen fftbox size, S = [  24  36  128  ]

---------- Initializing tighter grid for wavefunction operations ----------
R = 
[    5.23966          0          0  ]
[          0       7.41          0  ]
[          0          0         28  ]
unit cell volume = 1087.12
G =
[    1.19916          0          0  ]
[          0   0.847933          0  ]
[          0          0   0.224399  ]
Minimum fftbox size, Smin = [  24  32  116  ]
Chosen fftbox size, S = [  24  32  120  ]

---------- Exchange Correlation functional ----------
Initalized PBEsol GGA exchange.
Initalized PBEsol GGA correlation.

---------- Setting up pseudopotentials ----------
Width of ionic core gaussian charges (only for fluid interactions / plotting) set to 0.397384

Reading pseudopotential file '/Users/juanmendezvalderrama/Documents/JDFTX/build/pseudopotentials/GBRV/pt_pbesol.uspp':
  Title: Pt.  Created by USPP 7.3.6 on 22-9-15
  Reference state energy: -104.899005.  16 valence electrons in orbitals:
    |510>  occupation: 6  eigenvalue: -2.158847
    |520>  occupation: 9.5  eigenvalue: -0.336311
    |600>  occupation: 0  eigenvalue: -0.320324
    |610>  occupation: 0  eigenvalue: -0.119800
  lMax: 2  lLocal: 3  QijEcut: 5.5
  6 projectors sampled on a log grid with 745 points:
    l: 0  eig: -0.320324  rCut: 2.45
    l: 0  eig: 1.500000  rCut: 2.45
    l: 1  eig: -2.158847  rCut: 1.6
    l: 1  eig: -0.119800  rCut: 1.6
    l: 2  eig: -0.500000  rCut: 1.6
    l: 2  eig: -0.336311  rCut: 1.6
  Partial core density with radius 1.1
  Transforming core density to a uniform radial grid of dG=0.02 with 1277 points.
  Transforming local potential to a uniform radial grid of dG=0.02 with 1277 points.
  Transforming nonlocal projectors to a uniform radial grid of dG=0.02 with 432 points.
  Transforming density augmentations to a uniform radial grid of dG=0.02 with 1277 points.
  Transforming atomic orbitals to a uniform radial grid of dG=0.02 with 432 points.
  Core radius for overlap checks: 2.45 bohrs.

Initialized 1 species with 5 total atoms.

Folded 1 k-points by 12x12x1 to 144 k-points.

---------- Setting up k-points, bands, fillings ----------
Reduced to 49 k-points under symmetry. 
Computing the number of bands and number of electrons
Reading initial fillings from file 110-Vacuum.fillings.
nElectrons:  80.000000   nBands: 60   nStates: 49

----- Setting up reduced wavefunction bases (one per k-point) -----
average nbasis = 4644.368 , ideal nbasis = 4644.279

---------- Setting up coulomb interaction ----------
Fluid mode embedding: using embedded box, but periodic Coulomb kernel.
(Fluid response is responsible for (approximate) separation between periodic images.)
Setting up double-sized grid for truncated Coulomb potentials:
R = 
[    5.23966          0          0  ]
[          0       7.41          0  ]
[          0          0         56  ]
unit cell volume = 2174.25
G =
[    1.19916          0          0  ]
[          0   0.847933          0  ]
[          0          0     0.1122  ]
Chosen fftbox size, S = [  24  36  256  ]
Integer grid location selected as the embedding center:
   Grid: [  0  0  0  ]
   Lattice: [  0  0  0  ]
   Cartesian: [  0  0  0  ]
Constructing Wigner-Seitz cell: 6 faces (6 quadrilaterals, 0 hexagons)
Range-separation parameter for embedded mesh potentials due to point charges: 0.590044 bohrs.

Initializing van der Waals corrections
	NOTE: vdW corrections apply only for interactions with fluid.
	Pt:  C6:  815.23 Eh-a0^6  R0: 3.326 a0 (WARNING: beyond Grimme's data set)

---------- Setting up ewald sum ----------
Optimum gaussian width for ewald sums = 3.952315 bohr.
Real space sum over 1425 unit cells with max indices [  9  7  2  ]
Reciprocal space sum over 3807 terms with max indices [  4  4  23  ]

---------- Allocating electronic variables ----------
Initializing wave functions:  reading from '110-Vacuum.wfns'
----- createFluidSolver() ----- (Fluid-side solver setup)
   Initializing fluid molecule 'H2O'
     Initializing site 'O'
       Electron density: proportional to exp(-r/0.36935)*erfc((r-0.51523)/0.36823) with norm 6.826
       Charge density: gaussian nuclear width 0.478731 with net site charge 0.826
       Polarizability: cuspless exponential with width 0.32 and norm 3.73
       Hard sphere radius: 2.57003 bohrs
       Positions in reference frame:
         [ +0.000000 +0.000000 +0.000000 ]
     Initializing site 'H'
       Electron density: proportional to exp(-r/0.34641)*erfc((r-0)/0.390882) with norm 0.587
       Charge density: gaussian nuclear width 0.377945 with net site charge -0.413
       Polarizability: cuspless exponential with width 0.39 and norm 3.3
       Positions in reference frame:
         [ +0.000000 -1.441945 +1.122523 ]
         [ +0.000000 +1.441945 +1.122523 ]
     Net charge: 0   dipole magnitude: 0.927204
     Initializing spherical shell mfKernel with radius 2.61727 Bohr
     deltaS corrections:
       site 'O': -7.54299
       site 'H': -6.83917
   Initializing fluid molecule 'Na+'
     Initializing site 'Na'
       Electron density: proportional to exp(-r/0.19682)*erfc((r-0.71491)/0.41314) with norm 8.1383
       Charge density: gaussian nuclear width 0.365347 with net site charge -1
       Hard sphere radius: 1.86327 bohrs
       Positions in reference frame:
         [ +0.000000 +0.000000 +0.000000 ]
     Net charge: -1   dipole magnitude: 0
     Initializing gaussian mfKernel with width: 1.55004 Bohr
     deltaS corrections:
       site 'Na': -22.3555
   Initializing fluid molecule 'F-'
     Initializing site 'F'
       Electron density: proportional to exp(-r/0.38886)*erfc((r-0)/0.438782) with norm 8
       Charge density: gaussian nuclear width 0.374796 with net site charge 1
       Hard sphere radius: 2.39995 bohrs
       Positions in reference frame:
         [ +0.000000 +0.000000 +0.000000 ]
     Net charge: 1   dipole magnitude: 0
     Initializing gaussian mfKernel with width: 1.59012 Bohr
     deltaS corrections:
       site 'F': -9.04335

Correction to mu due to finite nuclear width = -0.0365073
   Cavity determined by nc: 0.00142 and sigma: 0.707107
   Nonlocal vdW cavity from gaussian model electron density with norm = 8 and sigma = 0.993594 bohr
   Charge asymmetry in cavity with sensitivity pCavity = 36.5 e-bohr/Eh
   Electrostatic cavity expanded by eta = 1.46 bohrs
   Weighted density cavitation model constrained by Nbulk: 0.0049383 bohr^-3, Pvap: 3.14029 kPa, Rvdw: 2.61727 bohr and sigmaBulk: 4.62e-05 Eh/bohr^2 at T: 298 K.
   Weighted density dispersion model using vdW pair potentials with single solvent site with sqrtC6eff: 0.77 SI.


---- Citations for features of the code used in this run ----

   Software package:
      R. Sundararaman, K. Letchworth-Weaver, K.A. Schwarz, D. Gunceler, Y. Ozhabes and T.A. Arias, 'JDFTx: software for joint density-functional theory', SoftwareX 6, 278 (2017)

   gga-PBEsol exchange-correlation functional:
      J.P. Perdew et al., Phys. Rev. Lett. 100, 136406 (2008)

   Pseudopotentials:
      KF Garrity, JW Bennett, KM Rabe and D Vanderbilt, Comput. Mater. Sci. 81, 446 (2014)

   Truncated Coulomb potentials:
      R. Sundararaman and T.A. Arias, Phys. Rev. B 87, 165122 (2013)

   Van der Waals correction pair-potentials:
      S. Grimme, J. Comput. Chem. 27, 1787 (2006)

   Charge-asymmetric nonlocally-determined local-electric (CANDLE) solvation model:
      R. Sundararaman and W.A. Goddard III, J. Chem. Phys. 142, 064107 (2015)

This list may not be complete. Please suggest additional citations or
report any other bugs at https://github.com/shankar1729/jdftx/issues

Initialization completed successfully at t[s]:      3.67

	Linear fluid (dielectric constant: 78.4, screening length: 5.74355 Bohr) occupying 0.609666 of unit cell:	Completed after 14 iterations at t[s]:      7.64

-------- Electronic minimization -----------
Will mix electronic density at each iteration.
	FillingsUpdate:  mu: -0.197859763  nElectrons: 80.000000
	Linear fluid (dielectric constant: 78.4, screening length: 5.74355 Bohr) occupying 0.609666 of unit cell:	Completed after 0 iterations at t[s]:      9.76
	FillingsUpdate:  mu: -0.192426995  nElectrons: 80.000000
	Linear fluid (dielectric constant: 78.4, screening length: 5.74355 Bohr) occupying 0.612663 of unit cell:	Completed after 10 iterations at t[s]:     33.31
SCF: Cycle:  0   F: -445.087566352049919   dF: +1.803e-04   |Residual|: 4.291e-03   |deigs|: 2.235e-04  t[s]:     33.56
	Linear fluid (dielectric constant: 78.4, screening length: 5.74355 Bohr) occupying 0.608997 of unit cell:	Completed after 11 iterations at t[s]:     33.77
	FillingsUpdate:  mu: -0.191043695  nElectrons: 80.000000
	Linear fluid (dielectric constant: 78.4, screening length: 5.74355 Bohr) occupying 0.612210 of unit cell:	Completed after 13 iterations at t[s]:     55.12
SCF: Cycle:  1   F: -445.087649095059703   dF: -8.274e-05   |Residual|: 6.309e-03   |deigs|: 1.434e-03  t[s]:     55.35
	Linear fluid (dielectric constant: 78.4, screening length: 5.74355 Bohr) occupying 0.609103 of unit cell:	Completed after 13 iterations at t[s]:     55.60
	FillingsUpdate:  mu: -0.190925131  nElectrons: 80.000000
	Linear fluid (dielectric constant: 78.4, screening length: 5.74355 Bohr) occupying 0.612294 of unit cell:	Completed after 12 iterations at t[s]:     73.82
SCF: Cycle:  2   F: -445.087758086577537   dF: -1.090e-04   |Residual|: 2.248e-03   |deigs|: 4.375e-04  t[s]:     74.05
	Linear fluid (dielectric constant: 78.4, screening length: 5.74355 Bohr) occupying 0.609101 of unit cell:	Completed after 12 iterations at t[s]:     74.28
	FillingsUpdate:  mu: -0.190352780  nElectrons: 80.000000
	Linear fluid (dielectric constant: 78.4, screening length: 5.74355 Bohr) occupying 0.612244 of unit cell:	Completed after 12 iterations at t[s]:     94.97
SCF: Cycle:  3   F: -445.087826674773453   dF: -6.859e-05   |Residual|: 1.322e-03   |deigs|: 5.783e-04  t[s]:     95.25
	Linear fluid (dielectric constant: 78.4, screening length: 5.74355 Bohr) occupying 0.609204 of unit cell:	Completed after 12 iterations at t[s]:     95.50
	FillingsUpdate:  mu: -0.189999869  nElectrons: 80.000000
	Linear fluid (dielectric constant: 78.4, screening length: 5.74355 Bohr) occupying 0.612221 of unit cell:	Completed after 12 iterations at t[s]:    112.56
SCF: Cycle:  4   F: -445.087827588491393   dF: -9.137e-07   |Residual|: 8.737e-04   |deigs|: 3.526e-04  t[s]:    113.01
	Linear fluid (dielectric constant: 78.4, screening length: 5.74355 Bohr) occupying 0.609662 of unit cell:	Completed after 11 iterations at t[s]:    113.44
	FillingsUpdate:  mu: -0.189044833  nElectrons: 80.000000
	Linear fluid (dielectric constant: 78.4, screening length: 5.74355 Bohr) occupying 0.612204 of unit cell:	Completed after 11 iterations at t[s]:    137.46
SCF: Cycle:  5   F: -445.087836085951153   dF: -8.497e-06   |Residual|: 4.285e-04   |deigs|: 9.266e-04  t[s]:    137.68
	Linear fluid (dielectric constant: 78.4, screening length: 5.74355 Bohr) occupying 0.610488 of unit cell:	Completed after 12 iterations at t[s]:    137.89
	FillingsUpdate:  mu: -0.188284414  nElectrons: 80.000000
	Linear fluid (dielectric constant: 78.4, screening length: 5.74355 Bohr) occupying 0.612199 of unit cell:	Completed after 11 iterations at t[s]:    152.40
SCF: Cycle:  6   F: -445.087837955184170   dF: -1.869e-06   |Residual|: 3.067e-04   |deigs|: 7.384e-04  t[s]:    152.62
	Linear fluid (dielectric constant: 78.4, screening length: 5.74355 Bohr) occupying 0.611632 of unit cell:	Completed after 10 iterations at t[s]:    152.80
	FillingsUpdate:  mu: -0.187758327  nElectrons: 80.000000
	Linear fluid (dielectric constant: 78.4, screening length: 5.74355 Bohr) occupying 0.612167 of unit cell:	Completed after 8 iterations at t[s]:    169.56
SCF: Cycle:  7   F: -445.087838975547697   dF: -1.020e-06   |Residual|: 1.917e-04   |deigs|: 4.977e-04  t[s]:    169.78
	Linear fluid (dielectric constant: 78.4, screening length: 5.74355 Bohr) occupying 0.612131 of unit cell:	Completed after 9 iterations at t[s]:    169.97
	FillingsUpdate:  mu: -0.187692924  nElectrons: 80.000000
	Linear fluid (dielectric constant: 78.4, screening length: 5.74355 Bohr) occupying 0.612124 of unit cell:	Completed after 9 iterations at t[s]:    186.94
SCF: Cycle:  8   F: -445.087839087768941   dF: -1.122e-07   |Residual|: 1.331e-04   |deigs|: 1.427e-04  t[s]:    187.17
	Linear fluid (dielectric constant: 78.4, screening length: 5.74355 Bohr) occupying 0.612222 of unit cell:	Completed after 9 iterations at t[s]:    187.34
	FillingsUpdate:  mu: -0.187706062  nElectrons: 80.000000
	Linear fluid (dielectric constant: 78.4, screening length: 5.74355 Bohr) occupying 0.612096 of unit cell:	Completed after 7 iterations at t[s]:    205.34
SCF: Cycle:  9   F: -445.087839206406898   dF: -1.186e-07   |Residual|: 7.540e-05   |deigs|: 2.275e-04  t[s]:    205.56
	Linear fluid (dielectric constant: 78.4, screening length: 5.74355 Bohr) occupying 0.612133 of unit cell:	Completed after 5 iterations at t[s]:    205.69
	FillingsUpdate:  mu: -0.187755419  nElectrons: 80.000000
	Linear fluid (dielectric constant: 78.4, screening length: 5.74355 Bohr) occupying 0.612093 of unit cell:	Completed after 6 iterations at t[s]:    223.23
SCF: Cycle: 10   F: -445.087839217441285   dF: -1.103e-08   |Residual|: 5.629e-05   |deigs|: 1.750e-04  t[s]:    223.47
	Linear fluid (dielectric constant: 78.4, screening length: 5.74355 Bohr) occupying 0.612111 of unit cell:	Completed after 7 iterations at t[s]:    223.62
	FillingsUpdate:  mu: -0.187729443  nElectrons: 80.000000
	Linear fluid (dielectric constant: 78.4, screening length: 5.74355 Bohr) occupying 0.612086 of unit cell:	Completed after 8 iterations at t[s]:    241.35
SCF: Cycle: 11   F: -445.087839229670863   dF: -1.223e-08   |Residual|: 3.787e-05   |deigs|: 4.538e-05  t[s]:    241.58
	Linear fluid (dielectric constant: 78.4, screening length: 5.74355 Bohr) occupying 0.612101 of unit cell:	Completed after 6 iterations at t[s]:    241.72
	FillingsUpdate:  mu: -0.187747364  nElectrons: 80.000000
	Linear fluid (dielectric constant: 78.4, screening length: 5.74355 Bohr) occupying 0.612089 of unit cell:	Completed after 2 iterations at t[s]:    258.62
SCF: Cycle: 12   F: -445.087839249300146   dF: -1.963e-08   |Residual|: 1.013e-05   |deigs|: 2.140e-05  t[s]:    258.84
	Linear fluid (dielectric constant: 78.4, screening length: 5.74355 Bohr) occupying 0.612100 of unit cell:	Completed after 2 iterations at t[s]:    258.93
	FillingsUpdate:  mu: -0.187751831  nElectrons: 80.000000
	Linear fluid (dielectric constant: 78.4, screening length: 5.74355 Bohr) occupying 0.612091 of unit cell:	Completed after 2 iterations at t[s]:    273.76
SCF: Cycle: 13   F: -445.087839248856483   dF: +4.437e-10   |Residual|: 7.731e-06   |deigs|: 1.085e-05  t[s]:    273.98
	Linear fluid (dielectric constant: 78.4, screening length: 5.74355 Bohr) occupying 0.612091 of unit cell:	Completed after 2 iterations at t[s]:    274.07
	FillingsUpdate:  mu: -0.187740791  nElectrons: 80.000000
	Linear fluid (dielectric constant: 78.4, screening length: 5.74355 Bohr) occupying 0.612088 of unit cell:	Completed after 5 iterations at t[s]:    291.54
SCF: Cycle: 14   F: -445.087839227569930   dF: +2.129e-08   |Residual|: 4.198e-05   |deigs|: 2.011e-05  t[s]:    291.76
	Linear fluid (dielectric constant: 78.4, screening length: 5.74355 Bohr) occupying 0.612090 of unit cell:	Completed after 5 iterations at t[s]:    291.89
	FillingsUpdate:  mu: -0.187754436  nElectrons: 80.000000
	Linear fluid (dielectric constant: 78.4, screening length: 5.74355 Bohr) occupying 0.612091 of unit cell:	Completed after 1 iterations at t[s]:    305.29
SCF: Cycle: 15   F: -445.087839249885349   dF: -2.232e-08   |Residual|: 5.915e-06   |deigs|: 1.413e-05  t[s]:    305.51
	Linear fluid (dielectric constant: 78.4, screening length: 5.74355 Bohr) occupying 0.612090 of unit cell:	Completed after 0 iterations at t[s]:    305.57
	FillingsUpdate:  mu: -0.187751822  nElectrons: 80.000000
	Linear fluid (dielectric constant: 78.4, screening length: 5.74355 Bohr) occupying 0.612090 of unit cell:	Completed after 3 iterations at t[s]:    318.72
SCF: Cycle: 16   F: -445.087839242765085   dF: +7.120e-09   |Residual|: 2.726e-05   |deigs|: 3.762e-06  t[s]:    318.94
	Linear fluid (dielectric constant: 78.4, screening length: 5.74355 Bohr) occupying 0.612090 of unit cell:	Completed after 2 iterations at t[s]:    319.03
	FillingsUpdate:  mu: -0.187736423  nElectrons: 80.000000
	Linear fluid (dielectric constant: 78.4, screening length: 5.74355 Bohr) occupying 0.612087 of unit cell:	Completed after 6 iterations at t[s]:    333.09
SCF: Cycle: 17   F: -445.087839232541739   dF: +1.022e-08   |Residual|: 3.201e-05   |deigs|: 1.655e-05  t[s]:    333.31
	Linear fluid (dielectric constant: 78.4, screening length: 5.74355 Bohr) occupying 0.612090 of unit cell:	Completed after 6 iterations at t[s]:    333.45
	FillingsUpdate:  mu: -0.187747322  nElectrons: 80.000000
	Linear fluid (dielectric constant: 78.4, screening length: 5.74355 Bohr) occupying 0.612090 of unit cell:	Completed after 2 iterations at t[s]:    346.80
SCF: Cycle: 18   F: -445.087839249279739   dF: -1.674e-08   |Residual|: 9.190e-06   |deigs|: 1.698e-05  t[s]:    347.02
	Linear fluid (dielectric constant: 78.4, screening length: 5.74355 Bohr) occupying 0.612090 of unit cell:	Completed after 2 iterations at t[s]:    347.11
	FillingsUpdate:  mu: -0.187748948  nElectrons: 80.000000
	Linear fluid (dielectric constant: 78.4, screening length: 5.74355 Bohr) occupying 0.612090 of unit cell:	Completed after 0 iterations at t[s]:    359.91
SCF: Cycle: 19   F: -445.087839249922752   dF: -6.430e-10   |Residual|: 4.583e-06   |deigs|: 9.251e-06  t[s]:    360.13
	Linear fluid (dielectric constant: 78.4, screening length: 5.74355 Bohr) occupying 0.612090 of unit cell:	Completed after 0 iterations at t[s]:    360.19
	FillingsUpdate:  mu: -0.187748940  nElectrons: 80.000000
	Linear fluid (dielectric constant: 78.4, screening length: 5.74355 Bohr) occupying 0.612090 of unit cell:	Completed after 0 iterations at t[s]:    372.93
SCF: Cycle: 20   F: -445.087839249972035   dF: -4.928e-11   |Residual|: 4.540e-06   |deigs|: 2.595e-06  t[s]:    373.15
SCF: Converged (|Delta E|<1.000000e-08 for 2 iters).


# Ionic positions in lattice coordinates:
ion Pt   0.000000000000000   0.000000000000000  -0.187130000000000 1
ion Pt   0.500000000000000   0.500000000000000  -0.093565000000000 1
ion Pt   0.000000000000000   0.000000000000000   0.000000000000000 1
ion Pt   0.500000000000000   0.500000000000000   0.093565000000000 1
ion Pt   0.000000000000000   0.000000000000000   0.187130000000000 1


# Forces in Lattice coordinates:
force Pt   0.000000000000000   0.000000000000000   0.545143329447710 1
force Pt   0.000000000000000   0.000000000000000  -0.585133076373176 1
force Pt   0.000000000000000   0.000000000000000   0.000000000000000 1
force Pt   0.000000000000000   0.000000000000000   0.585133076373404 1
force Pt   0.000000000000000   0.000000000000000  -0.545143329448165 1

# Energy components:
   A_diel =       -0.0018191778134987
   Eewald =     2483.8884738379178998
       EH =     2879.7024063335243227
     Eloc =    -5885.5066078534719054
      Enl =       -5.2862992465256173
      Exc =     -141.4488348125017865
 Exc_core =       81.2082843751934433
       KE =      142.4197705813273558
  MuShift =       -0.0000000000020809
-------------------------------------
     Etot =     -445.0246259623518768
       TS =        0.0632132876201579
-------------------------------------
        F =     -445.0878392499720348

IonicMinimize: Iter:   0  F: -445.087839249972035  |grad|_K:  1.043e-02  t[s]:    374.38
IonicMinimize: None of the convergence criteria satisfied after 0 iterations.

#--- Lowdin population analysis ---
# oxidation-state Pt +0.073 -0.050 +0.009 -0.050 +0.073


Dumping 'Solvated.fillings' ... done
Dumping 'Solvated.wfns' ... done
Dumping 'Solvated.fluidState' ... done
Dumping 'Solvated.n' ... done
Dumping 'Solvated.eigenvals' ... done
Dumping 'Solvated.Ecomponents' ... done
End date and time: Mon Mar 11 15:42:13 2019  (Duration: 0-0:06:15.37)
Done!
