CRYSTAL
PRIMVEC
  2.772709   0.000000   0.000000
 -1.386354   2.401237   0.000000
  0.000000   0.000000  19.050379
PRIMCOORD
5 1
78   1.386354  -0.800412  -4.527818
78  -1.386354   0.800412  -2.263909
78   0.000000   0.000000   0.000000
78   1.386354  -0.800412   2.263909
78  -1.386354   0.800412   4.527818
BEGIN_BLOCK_DATAGRID_3D
 n
 BEGIN_DATAGRID_3D_n
  25 25 169
    0.000000   0.000000   0.000000
    2.772709   0.000000   0.000000
   -1.386354   2.401237   0.000000
    0.000000   0.000000  19.050379
  -1.665576e+00 -1.096722e+00 1.089551e-01 1.007421e+00 1.160309e+00 8.423588e-01 4.928315e-01 2.773552e-01 1.627348e-01 1.024578e-01 7.361715e-02 6.028217e-02 5.656096e-02 6.028217e-02 7.361715e-02 1.024578e-01 1.627348e-01 2.773552e-01 4.928315e-01 8.423588e-01 1.160309e+00 1.007421e+00 1.089551e-01 -1.096722e+00 -1.665576e+00
  -1.096722e+00 -1.096722e+00 -2.205570e-01 7.694911e-01 1.182529e+00 9.998432e-01 6.299635e-01 3.560492e-01 2.055643e-01 1.245720e-01 8.394725e-02 6.469116e-02 5.678127e-02 5.678127e-02 6.469116e-02 8.394725e-02 1.245720e-01 2.055643e-01 3.560492e-01 6.299635e-01 9.998432e-01 1.182529e+00 7.694911e-01 -2.205570e-01 -1.096722e+00
  1.089551e-01 -2.205570e-01 1.089551e-01 7.694911e-01 1.166550e+00 1.073629e+00 7.298865e-01 4.265068e-01 2.461656e-01 1.473493e-01 9.503427e-02 6.958851e-02 5.754755e-02 5.413906e-02 5.754755e-02 6.958851e-02 9.503427e-02 1.473493e-01 2.461656e-01 4.265068e-01 7.298865e-01 1.073629e+00 1.166550e+00 7.694911e-01 1.089551e-01
  1.007421e+00 7.694911e-01 7.694911e-01 1.007421e+00 1.182529e+00 1.073629e+00 7.659060e-01 4.685318e-01 2.759491e-01 1.664175e-01 1.053618e-01 7.432571e-02 5.876874e-02 5.220027e-02 5.220027e-02 5.876874e-02 7.432571e-02 1.053618e-01 1.664175e-01 2.759491e-01 4.685318e-01 7.659060e-01 1.073629e+00 1.182529e+00 1.007421e+00
  1.160309e+00 1.182529e+00 1.166550e+00 1.182529e+00 1.160309e+00 9.998432e-01 7.298865e-01 4.685318e-01 2.870106e-01 1.773731e-01 1.127214e-01 7.821740e-02 5.999383e-02 5.109829e-02 4.825005e-02 5.109829e-02 5.999383e-02 7.821740e-02 1.127214e-01 1.773731e-01 2.870106e-01 4.685318e-01 7.298865e-01 9.998432e-01 1.160309e+00
  8.423588e-01 9.998432e-01 1.073629e+00 1.073629e+00 9.998432e-01 8.423588e-01 6.299635e-01 4.265068e-01 2.759491e-01 1.773731e-01 1.154081e-01 8.041313e-02 6.099501e-02 5.053169e-02 4.576345e-02 4.576345e-02 5.053169e-02 6.099501e-02 8.041313e-02 1.154081e-01 1.773731e-01 2.759491e-01 4.265068e-01 6.299635e-01 8.423588e-01
  4.928315e-01 6.299635e-01 7.298865e-01 7.659060e-01 7.298865e-01 6.299635e-01 4.928315e-01 3.560492e-01 2.461656e-01 1.664175e-01 1.127214e-01 8.041313e-02 6.135481e-02 5.033851e-02 4.436089e-02 4.247089e-02 4.436089e-02 5.033851e-02 6.135481e-02 8.041313e-02 1.127214e-01 1.664175e-01 2.461656e-01 3.560492e-01 4.928315e-01
  2.773552e-01 3.560492e-01 4.265068e-01 4.685318e-01 4.685318e-01 4.265068e-01 3.560492e-01 2.773552e-01 2.055643e-01 1.473493e-01 1.053618e-01 7.821740e-02 6.099501e-02 5.033851e-02 4.393684e-02 4.088999e-02 4.088999e-02 4.393684e-02 5.033851e-02 6.099501e-02 7.821740e-02 1.053618e-01 1.473493e-01 2.055643e-01 2.773552e-01
  1.627348e-01 2.055643e-01 2.461656e-01 2.759491e-01 2.870106e-01 2.759491e-01 2.461656e-01 2.055643e-01 1.627348e-01 1.245720e-01 9.503427e-02 7.432571e-02 5.999383e-02 5.053169e-02 4.436089e-02 4.088999e-02 3.975902e-02 4.088999e-02 4.436089e-02 5.053169e-02 5.999383e-02 7.432571e-02 9.503427e-02 1.245720e-01 1.627348e-01
  1.024578e-01 1.245720e-01 1.473493e-01 1.664175e-01 1.773731e-01 1.773731e-01 1.664175e-01 1.473493e-01 1.245720e-01 1.024578e-01 8.394725e-02 6.958851e-02 5.876874e-02 5.109829e-02 4.576345e-02 4.247089e-02 4.088999e-02 4.088999e-02 4.247089e-02 4.576345e-02 5.109829e-02 5.876874e-02 6.958851e-02 8.394725e-02 1.024578e-01
  7.361715e-02 8.394725e-02 9.503427e-02 1.053618e-01 1.127214e-01 1.154081e-01 1.127214e-01 1.053618e-01 9.503427e-02 8.394725e-02 7.361715e-02 6.469116e-02 5.754755e-02 5.220027e-02 4.825005e-02 4.576345e-02 4.436089e-02 4.393684e-02 4.436089e-02 4.576345e-02 4.825005e-02 5.220027e-02 5.754755e-02 6.469116e-02 7.361715e-02
  6.028217e-02 6.469116e-02 6.958851e-02 7.432571e-02 7.821740e-02 8.041313e-02 8.041313e-02 7.821740e-02 7.432571e-02 6.958851e-02 6.469116e-02 6.028217e-02 5.678127e-02 5.413906e-02 5.220027e-02 5.109829e-02 5.053169e-02 5.033851e-02 5.033851e-02 5.053169e-02 5.109829e-02 5.220027e-02 5.413906e-02 5.678127e-02 6.028217e-02
  5.656096e-02 5.678127e-02 5.754755e-02 5.876874e-02 5.999383e-02 6.099501e-02 6.135481e-02 6.099501e-02 5.999383e-02 5.876874e-02 5.754755e-02 5.678127e-02 5.656096e-02 5.678127e-02 5.754755e-02 5.876874e-02 5.999383e-02 6.099501e-02 6.135481e-02 6.099501e-02 5.999383e-02 5.876874e-02 5.754755e-02 5.678127e-02 5.656096e-02
  6.028217e-02 5.678127e-02 5.413906e-02 5.220027e-02 5.109829e-02 5.053169e-02 5.033851e-02 5.033851e-02 5.053169e-02 5.109829e-02 5.220027e-02 5.413906e-02 5.678127e-02 6.028217e-02 6.469116e-02 6.958851e-02 7.432571e-02 7.821740e-02 8.041313e-02 8.041313e-02 7.821740e-02 7.432571e-02 6.958851e-02 6.469116e-02 6.028217e-02
  7.361715e-02 6.469116e-02 5.754755e-02 5.220027e-02 4.825005e-02 4.576345e-02 4.436089e-02 4.393684e-02 4.436089e-02 4.576345e-02 4.825005e-02 5.220027e-02 5.754755e-02 6.469116e-02 7.361715e-02 8.394725e-02 9.503427e-02 1.053618e-01 1.127214e-01 1.154081e-01 1.127214e-01 1.053618e-01 9.503427e-02 8.394725e-02 7.361715e-02
  1.024578e-01 8.394725e-02 6.958851e-02 5.876874e-02 5.109829e-02 4.576345e-02 4.247089e-02 4.088999e-02 4.088999e-02 4.247089e-02 4.576345e-02 5.109829e-02 5.876874e-02 6.958851e-02 8.394725e-02 1.024578e-01 1.245720e-01 1.473493e-01 1.664175e-01 1.773731e-01 1.773731e-01 1.664175e-01 1.473493e-01 1.245720e-01 1.024578e-01
  1.627348e-01 1.245720e-01 9.503427e-02 7.432571e-02 5.999383e-02 5.053169e-02 4.436089e-02 4.088999e-02 3.975902e-02 4.088999e-02 4.436089e-02 5.053169e-02 5.999383e-02 7.432571e-02 9.503427e-02 1.245720e-01 1.627348e-01 2.055643e-01 2.461656e-01 2.759491e-01 2.870106e-01 2.759491e-01 2.461656e-01 2.055643e-01 1.627348e-01
  2.773552e-01 2.055643e-01 1.473493e-01 1.053618e-01 7.821740e-02 6.099501e-02 5.033851e-02 4.393684e-02 4.088999e-02 4.088999e-02 4.393684e-02 5.033851e-02 6.099501e-02 7.821740e-02 1.053618e-01 1.473493e-01 2.055643e-01 2.773552e-01 3.560492e-01 4.265068e-01 4.685318e-01 4.685318e-01 4.265068e-01 3.560492e-01 2.773552e-01
  4.928315e-01 3.560492e-01 2.461656e-01 1.664175e-01 1.127214e-01 8.041313e-02 6.135481e-02 5.033851e-02 4.436089e-02 4.247089e-02 4.436089e-02 5.033851e-02 6.135481e-02 8.041313e-02 1.127214e-01 1.664175e-01 2.461656e-01 3.560492e-01 4.928315e-01 6.299635e-01 7.298865e-01 7.659060e-01 7.298865e-01 6.299635e-01 4.928315e-01
  8.423588e-01 6.299635e-01 4.265068e-01 2.759491e-01 1.773731e-01 1.154081e-01 8.041313e-02 6.099501e-02 5.053169e-02 4.576345e-02 4.576345e-02 5.053169e-02 6.099501e-02 8.041313e-02 1.154081e-01 1.773731e-01 2.759491e-01 4.265068e-01 6.299635e-01 8.423588e-01 9.998432e-01 1.073629e+00 1.073629e+00 9.998432e-01 8.423588e-01
  1.160309e+00 9.998432e-01 7.298865e-01 4.685318e-01 2.870106e-01 1.773731e-01 1.127214e-01 7.821740e-02 5.999383e-02 5.109829e-02 4.825005e-02 5.109829e-02 5.999383e-02 7.821740e-02 1.127214e-01 1.773731e-01 2.870106e-01 4.685318e-01 7.298865e-01 9.998432e-01 1.160309e+00 1.182529e+00 1.166550e+00 1.182529e+00 1.160309e+00
  1.007421e+00 1.182529e+00 1.073629e+00 7.659060e-01 4.685318e-01 2.759491e-01 1.664175e-01 1.053618e-01 7.432571e-02 5.876874e-02 5.220027e-02 5.220027e-02 5.876874e-02 7.432571e-02 1.053618e-01 1.664175e-01 2.759491e-01 4.685318e-01 7.659060e-01 1.073629e+00 1.182529e+00 1.007421e+00 7.694911e-01 7.694911e-01 1.007421e+00
  1.089551e-01 7.694911e-01 1.166550e+00 1.073629e+00 7.298865e-01 4.265068e-01 2.461656e-01 1.473493e-01 9.503427e-02 6.958851e-02 5.754755e-02 5.413906e-02 5.754755e-02 6.958851e-02 9.503427e-02 1.473493e-01 2.461656e-01 4.265068e-01 7.298865e-01 1.073629e+00 1.166550e+00 7.694911e-01 1.089551e-01 -2.205570e-01 1.089551e-01
  -1.096722e+00 -2.205570e-01 7.694911e-01 1.182529e+00 9.998432e-01 6.299635e-01 3.560492e-01 2.055643e-01 1.245720e-01 8.394725e-02 6.469116e-02 5.678127e-02 5.678127e-02 6.469116e-02 8.394725e-02 1.245720e-01 2.055643e-01 3.560492e-01 6.299635e-01 9.998432e-01 1.182529e+00 7.694911e-01 -2.205570e-01 -1.096722e+00 -1.096722e+00
  -1.665576e+00 -1.096722e+00 1.089551e-01 1.007421e+00 1.160309e+00 8.423588e-01 4.928315e-01 2.773552e-01 1.627348e-01 1.024578e-01 7.361715e-02 6.028217e-02 5.656096e-02 6.028217e-02 7.361715e-02 1.024578e-01 1.627348e-01 2.773552e-01 4.928315e-01 8.423588e-01 1.160309e+00 1.007421e+00 1.089551e-01 -1.096722e+00 -1.665576e+00
  -1.115811e+00 -6.341252e-01 3.715921e-01 1.082600e+00 1.139619e+00 8.067872e-01 4.709956e-01 2.671457e-01 1.576840e-01 9.999654e-02 7.225579e-02 5.934185e-02 5.571495e-02 5.934185e-02 7.225579e-02 9.999654e-02 1.576840e-01 2.671457e-01 4.709956e-01 8.067872e-01 1.139619e+00 1.082600e+00 3.715921e-01 -6.341252e-01 -1.115811e+00
  -6.341252e-01 -6.341252e-01 1.029289e-01 9.097089e-01 1.195666e+00 9.702732e-01 6.050676e-01 3.433705e-01 1.994348e-01 1.214302e-01 8.229288e-02 6.358274e-02 5.586932e-02 5.586932e-02 6.358274e-02 8.229288e-02 1.214302e-01 1.994348e-01 3.433705e-01 6.050676e-01 9.702732e-01 1.195666e+00 9.097089e-01 1.029289e-01 -6.341252e-01
  3.715921e-01 9.635395e-02 3.715921e-01 9.097089e-01 1.196344e+00 1.052343e+00 7.050615e-01 4.122605e-01 2.393595e-01 1.437199e-01 9.311396e-02 6.832363e-02 5.655678e-02 5.317943e-02 5.655678e-02 6.832363e-02 9.311396e-02 1.437199e-01 2.393595e-01 4.122605e-01 7.050615e-01 1.052343e+00 1.196344e+00 9.097089e-01 3.715921e-01
  1.082600e+00 8.958388e-01 8.958388e-01 1.082600e+00 1.195666e+00 1.052343e+00 7.417416e-01 4.537592e-01 2.687930e-01 1.625606e-01 1.032445e-01 7.297303e-02 5.772198e-02 5.125375e-02 5.125375e-02 5.772198e-02 7.297303e-02 1.032445e-01 1.625606e-01 2.687930e-01 4.537592e-01 7.417416e-01 1.052343e+00 1.195666e+00 1.082600e+00
  1.139619e+00 1.179573e+00 1.172801e+00 1.179573e+00 1.139619e+00 9.702732e-01 7.050615e-01 4.537592e-01 2.797551e-01 1.734589e-01 1.105098e-01 7.682655e-02 5.893161e-02 5.014118e-02 4.731398e-02 5.014118e-02 5.893161e-02 7.682655e-02 1.105098e-01 1.734589e-01 2.797551e-01 4.537592e-01 7.050615e-01 9.702732e-01 1.139619e+00
  8.067872e-01 9.577947e-01 1.029631e+00 1.029631e+00 9.577947e-01 8.067872e-01 6.050676e-01 4.122605e-01 2.687930e-01 1.734589e-01 1.131742e-01 7.900763e-02 5.991230e-02 4.953092e-02 4.478339e-02 4.478339e-02 4.953092e-02 5.991230e-02 7.900763e-02 1.131742e-01 1.734589e-01 2.687930e-01 4.122605e-01 6.050676e-01 8.067872e-01
  4.709956e-01 5.978880e-01 6.897880e-01 7.228367e-01 6.897880e-01 5.978880e-01 4.709956e-01 3.433705e-01 2.393595e-01 1.625606e-01 1.105098e-01 7.900763e-02 6.026626e-02 4.931361e-02 4.337988e-02 4.150293e-02 4.337988e-02 4.931361e-02 6.026626e-02 7.900763e-02 1.105098e-01 1.625606e-01 2.393595e-01 3.433705e-01 4.709956e-01
  2.671457e-01 3.399549e-01 4.042196e-01 4.422242e-01 4.422242e-01 4.042196e-01 3.399549e-01 2.671457e-01 1.994348e-01 1.437199e-01 1.032445e-01 7.682655e-02 5.991230e-02 4.931361e-02 4.295854e-02 3.994570e-02 3.994570e-02 4.295854e-02 4.931361e-02 5.991230e-02 7.682655e-02 1.032445e-01 1.437199e-01 1.994348e-01 2.671457e-01
  1.576840e-01 1.979332e-01 2.355745e-01 2.628099e-01 2.728415e-01 2.628099e-01 2.355745e-01 1.979332e-01 1.576840e-01 1.214302e-01 9.311396e-02 7.297303e-02 5.893161e-02 4.953092e-02 4.337988e-02 3.994570e-02 3.882001e-02 3.994570e-02 4.337988e-02 4.953092e-02 5.893161e-02 7.297303e-02 9.311396e-02 1.214302e-01 1.576840e-01
  9.999654e-02 1.208826e-01 1.421673e-01 1.598303e-01 1.699190e-01 1.699190e-01 1.598303e-01 1.421673e-01 1.208826e-01 9.999654e-02 8.229288e-02 6.832363e-02 5.772198e-02 5.014118e-02 4.478339e-02 4.150293e-02 3.994570e-02 3.994570e-02 4.150293e-02 4.478339e-02 5.014118e-02 5.772198e-02 6.832363e-02 8.229288e-02 9.999654e-02
  7.225579e-02 8.217767e-02 9.265699e-02 1.022890e-01 1.090917e-01 1.115681e-01 1.090917e-01 1.022890e-01 9.265699e-02 8.217767e-02 7.225579e-02 6.358274e-02 5.655678e-02 5.125375e-02 4.731398e-02 4.478339e-02 4.337988e-02 4.295854e-02 4.337988e-02 4.478339e-02 4.731398e-02 5.125375e-02 5.655678e-02 6.358274e-02 7.225579e-02
  5.934185e-02 6.365951e-02 6.836580e-02 7.287273e-02 7.654510e-02 7.859843e-02 7.859843e-02 7.654510e-02 7.287273e-02 6.836580e-02 6.365951e-02 5.934185e-02 5.586932e-02 5.317943e-02 5.125375e-02 5.014118e-02 4.953092e-02 4.931361e-02 4.931361e-02 4.953092e-02 5.014118e-02 5.125375e-02 5.317943e-02 5.586932e-02 5.934185e-02
  5.571495e-02 5.601854e-02 5.681413e-02 5.802863e-02 5.923296e-02 6.018340e-02 6.052122e-02 6.018340e-02 5.923296e-02 5.802863e-02 5.681413e-02 5.601854e-02 5.571495e-02 5.586932e-02 5.655678e-02 5.772198e-02 5.893161e-02 5.991230e-02 6.026626e-02 5.991230e-02 5.893161e-02 5.772198e-02 5.655678e-02 5.586932e-02 5.571495e-02
  5.934185e-02 5.601854e-02 5.349920e-02 5.172153e-02 5.071238e-02 5.015656e-02 4.996065e-02 4.996065e-02 5.015656e-02 5.071238e-02 5.172153e-02 5.349920e-02 5.601854e-02 5.934185e-02 6.358274e-02 6.832363e-02 7.297303e-02 7.682655e-02 7.900763e-02 7.900763e-02 7.682655e-02 7.297303e-02 6.832363e-02 6.358274e-02 5.934185e-02
  7.225579e-02 6.365951e-02 5.681413e-02 5.172153e-02 4.796707e-02 4.556285e-02 4.423277e-02 4.383461e-02 4.423277e-02 4.556285e-02 4.796707e-02 5.172153e-02 5.681413e-02 6.365951e-02 7.225579e-02 8.229288e-02 9.311396e-02 1.032445e-01 1.105098e-01 1.131742e-01 1.105098e-01 1.032445e-01 9.311396e-02 8.229288e-02 7.225579e-02
  9.999654e-02 8.217767e-02 6.836580e-02 5.802863e-02 5.071238e-02 4.556285e-02 4.241909e-02 4.092821e-02 4.092821e-02 4.241909e-02 4.556285e-02 5.071238e-02 5.802863e-02 6.836580e-02 8.217767e-02 9.999654e-02 1.214302e-01 1.437199e-01 1.625606e-01 1.734589e-01 1.734589e-01 1.625606e-01 1.437199e-01 1.214302e-01 9.999654e-02
  1.576840e-01 1.208826e-01 9.265699e-02 7.287273e-02 5.923296e-02 5.015656e-02 4.423277e-02 4.092821e-02 3.984469e-02 4.092821e-02 4.423277e-02 5.015656e-02 5.923296e-02 7.287273e-02 9.265699e-02 1.208826e-01 1.576840e-01 1.994348e-01 2.393595e-01 2.687930e-01 2.797551e-01 2.687930e-01 2.393595e-01 1.994348e-01 1.576840e-01
  2.671457e-01 1.979332e-01 1.421673e-01 1.022890e-01 7.654510e-02 6.018340e-02 4.996065e-02 4.383461e-02 4.092821e-02 4.092821e-02 4.383461e-02 4.996065e-02 6.018340e-02 7.654510e-02 1.022890e-01 1.421673e-01 1.979332e-01 2.671457e-01 3.433705e-01 4.122605e-01 4.537592e-01 4.537592e-01 4.122605e-01 3.433705e-01 2.671457e-01
  4.709956e-01 3.399549e-01 2.355745e-01 1.598303e-01 1.090917e-01 7.859843e-02 6.052122e-02 4.996065e-02 4.423277e-02 4.241909e-02 4.423277e-02 4.996065e-02 6.052122e-02 7.859843e-02 1.090917e-01 1.598303e-01 2.355745e-01 3.399549e-01 4.709956e-01 6.050676e-01 7.050615e-01 7.417416e-01 7.050615e-01 6.050676e-01 4.709956e-01
  8.067872e-01 5.978880e-01 4.042196e-01 2.628099e-01 1.699190e-01 1.115681e-01 7.859843e-02 6.018340e-02 5.015656e-02 4.556285e-02 4.556285e-02 5.015656e-02 6.018340e-02 7.859843e-02 1.115681e-01 1.699190e-01 2.628099e-01 4.042196e-01 5.978880e-01 8.067872e-01 9.702732e-01 1.052343e+00 1.052343e+00 9.702732e-01 8.067872e-01
  1.139619e+00 9.577947e-01 6.897880e-01 4.422242e-01 2.728415e-01 1.699190e-01 1.090917e-01 7.654510e-02 5.923296e-02 5.071238e-02 4.796707e-02 5.071238e-02 5.923296e-02 7.654510e-02 1.090917e-01 1.699190e-01 2.728415e-01 4.422242e-01 6.897880e-01 9.577947e-01 1.139619e+00 1.195666e+00 1.196344e+00 1.195666e+00 1.139619e+00
  1.082600e+00 1.179573e+00 1.029631e+00 7.228367e-01 4.422242e-01 2.628099e-01 1.598303e-01 1.022890e-01 7.287273e-02 5.802863e-02 5.172153e-02 5.172153e-02 5.802863e-02 7.287273e-02 1.022890e-01 1.598303e-01 2.628099e-01 4.422242e-01 7.228367e-01 1.029631e+00 1.179573e+00 1.082600e+00 9.097089e-01 9.097089e-01 1.082600e+00
  3.715921e-01 8.958388e-01 1.172801e+00 1.029631e+00 6.897880e-01 4.042196e-01 2.355745e-01 1.421673e-01 9.265699e-02 6.836580e-02 5.681413e-02 5.349920e-02 5.681413e-02 6.836580e-02 9.265699e-02 1.421673e-01 2.355745e-01 4.042196e-01 6.897880e-01 1.029631e+00 1.172801e+00 8.958388e-01 3.715921e-01 1.029289e-01 3.715921e-01
  -6.341252e-01 9.635395e-02 8.958388e-01 1.179573e+00 9.577947e-01 5.978880e-01 3.399549e-01 1.979332e-01 1.208826e-01 8.217767e-02 6.365951e-02 5.601854e-02 5.601854e-02 6.365951e-02 8.217767e-02 1.208826e-01 1.979332e-01 3.399549e-01 5.978880e-01 9.577947e-01 1.179573e+00 8.958388e-01 9.635395e-02 -6.341252e-01 -6.341252e-01
  -1.115811e+00 -6.341252e-01 3.715921e-01 1.082600e+00 1.139619e+00 8.067872e-01 4.709956e-01 2.671457e-01 1.576840e-01 9.999654e-02 7.225579e-02 5.934185e-02 5.571495e-02 5.934185e-02 7.225579e-02 9.999654e-02 1.576840e-01 2.671457e-01 4.709956e-01 8.067872e-01 1.139619e+00 1.082600e+00 3.715921e-01 -6.341252e-01 -1.115811e+00
  6.346886e-02 3.434053e-01 8.916833e-01 1.188380e+00 1.050140e+00 7.044764e-01 4.121453e-01 2.393107e-01 1.438174e-01 9.320605e-02 6.847790e-02 5.670051e-02 5.335704e-02 5.670051e-02 6.847790e-02 9.320605e-02 1.438174e-01 2.393107e-01 4.121453e-01 7.044764e-01 1.050140e+00 1.188380e+00 8.916833e-01 3.434053e-01 6.346886e-02
  3.434053e-01 3.434053e-01 7.554027e-01 1.145171e+00 1.159662e+00 8.624337e-01 5.289224e-01 3.055443e-01 1.809259e-01 1.121603e-01 7.750894e-02 6.048669e-02 5.338969e-02 5.338969e-02 6.048669e-02 7.750894e-02 1.121603e-01 1.809259e-01 3.055443e-01 5.289224e-01 8.624337e-01 1.159662e+00 1.145171e+00 7.554027e-01 3.434053e-01
  8.916833e-01 7.452696e-01 8.916833e-01 1.145171e+00 1.188354e+00 9.495105e-01 6.183388e-01 3.652574e-01 2.165827e-01 1.320058e-01 8.721068e-02 6.475033e-02 5.397153e-02 5.076119e-02 5.397153e-02 6.475033e-02 8.721068e-02 1.320058e-01 2.165827e-01 3.652574e-01 6.183388e-01 9.495105e-01 1.188354e+00 1.145171e+00 8.916833e-01
  1.188380e+00 1.123873e+00 1.123873e+00 1.188380e+00 1.159662e+00 9.495105e-01 6.518476e-01 4.014805e-01 2.428391e-01 1.488974e-01 9.627247e-02 6.898735e-02 5.495140e-02 4.889313e-02 4.889313e-02 5.495140e-02 6.898735e-02 9.627247e-02 1.488974e-01 2.428391e-01 4.014805e-01 6.518476e-01 9.495105e-01 1.159662e+00 1.188380e+00
  1.050140e+00 1.135345e+00 1.152694e+00 1.135345e+00 1.050140e+00 8.624337e-01 6.183388e-01 4.014805e-01 2.525674e-01 1.587146e-01 1.028092e-01 7.246887e-02 5.599793e-02 4.778897e-02 4.512572e-02 4.778897e-02 5.599793e-02 7.246887e-02 1.028092e-01 1.587146e-01 2.525674e-01 4.014805e-01 6.183388e-01 8.624337e-01 1.050140e+00
  7.044764e-01 8.437268e-01 9.154486e-01 9.154486e-01 8.437268e-01 7.044764e-01 5.289224e-01 3.652574e-01 2.428391e-01 1.587146e-01 1.052277e-01 7.441905e-02 5.689359e-02 4.721664e-02 4.275647e-02 4.275647e-02 4.721664e-02 5.689359e-02 7.441905e-02 1.052277e-01 1.587146e-01 2.428391e-01 3.652574e-01 5.289224e-01 7.044764e-01
  4.121453e-01 5.181113e-01 5.953946e-01 6.234672e-01 5.953946e-01 5.181113e-01 4.121453e-01 3.055443e-01 2.165827e-01 1.488974e-01 1.028092e-01 7.441905e-02 5.721562e-02 4.701363e-02 4.141177e-02 3.963787e-02 4.141177e-02 4.701363e-02 5.721562e-02 7.441905e-02 1.028092e-01 1.488974e-01 2.165827e-01 3.055443e-01 4.121453e-01
  2.393107e-01 3.002832e-01 3.529787e-01 3.839416e-01 3.839416e-01 3.529787e-01 3.002832e-01 2.393107e-01 1.809259e-01 1.320058e-01 9.627247e-02 7.246887e-02 5.689359e-02 4.701363e-02 4.101244e-02 3.815626e-02 3.815626e-02 4.101244e-02 4.701363e-02 5.689359e-02 7.246887e-02 9.627247e-02 1.320058e-01 1.809259e-01 2.393107e-01
  1.438174e-01 1.786090e-01 2.107059e-01 2.335495e-01 2.418364e-01 2.335495e-01 2.107059e-01 1.786090e-01 1.438174e-01 1.121603e-01 8.721068e-02 6.898735e-02 5.599793e-02 4.721664e-02 4.141177e-02 3.815626e-02 3.707833e-02 3.815626e-02 4.141177e-02 4.721664e-02 5.599793e-02 6.898735e-02 8.721068e-02 1.121603e-01 1.438174e-01
  9.320605e-02 1.113738e-01 1.296914e-01 1.447556e-01 1.533123e-01 1.533123e-01 1.447556e-01 1.296914e-01 1.113738e-01 9.320605e-02 7.750894e-02 6.475033e-02 5.495140e-02 4.778897e-02 4.275647e-02 3.963787e-02 3.815626e-02 3.815626e-02 3.963787e-02 4.275647e-02 4.778897e-02 5.495140e-02 6.475033e-02 7.750894e-02 9.320605e-02
  6.847790e-02 7.742456e-02 8.665470e-02 9.498394e-02 1.008192e-01 1.029532e-01 1.008192e-01 9.498394e-02 8.665470e-02 7.742456e-02 6.847790e-02 6.048669e-02 5.397153e-02 4.889313e-02 4.512572e-02 4.275647e-02 4.141177e-02 4.101244e-02 4.141177e-02 4.275647e-02 4.512572e-02 4.889313e-02 5.397153e-02 6.048669e-02 6.847790e-02
  5.670051e-02 6.072518e-02 6.503776e-02 6.912115e-02 7.236238e-02 7.412803e-02 7.412803e-02 7.236238e-02 6.912115e-02 6.503776e-02 6.072518e-02 5.670051e-02 5.338969e-02 5.076119e-02 4.889313e-02 4.778897e-02 4.721664e-02 4.701363e-02 4.701363e-02 4.721664e-02 4.778897e-02 4.889313e-02 5.076119e-02 5.338969e-02 5.670051e-02
  5.335704e-02 5.375067e-02 5.461447e-02 5.576768e-02 5.686324e-02 5.775396e-02 5.806432e-02 5.775396e-02 5.686324e-02 5.576768e-02 5.461447e-02 5.375067e-02 5.335704e-02 5.338969e-02 5.397153e-02 5.495140e-02 5.599793e-02 5.689359e-02 5.721562e-02 5.689359e-02 5.599793e-02 5.495140e-02 5.397153e-02 5.338969e-02 5.335704e-02
  5.670051e-02 5.375067e-02 5.152259e-02 4.998597e-02 4.912630e-02 4.869924e-02 4.856269e-02 4.856269e-02 4.869924e-02 4.912630e-02 4.998597e-02 5.152259e-02 5.375067e-02 5.670051e-02 6.048669e-02 6.475033e-02 6.898735e-02 7.246887e-02 7.441905e-02 7.441905e-02 7.246887e-02 6.898735e-02 6.475033e-02 6.048669e-02 5.670051e-02
  6.847790e-02 6.072518e-02 5.461447e-02 4.998597e-02 4.659788e-02 4.451268e-02 4.332876e-02 4.298011e-02 4.332876e-02 4.451268e-02 4.659788e-02 4.998597e-02 5.461447e-02 6.072518e-02 6.847790e-02 7.750894e-02 8.721068e-02 9.627247e-02 1.028092e-01 1.052277e-01 1.028092e-01 9.627247e-02 8.721068e-02 7.750894e-02 6.847790e-02
  9.320605e-02 7.742456e-02 6.503776e-02 5.576768e-02 4.912630e-02 4.451268e-02 4.166803e-02 4.031546e-02 4.031546e-02 4.166803e-02 4.451268e-02 4.912630e-02 5.576768e-02 6.503776e-02 7.742456e-02 9.320605e-02 1.121603e-01 1.320058e-01 1.488974e-01 1.587146e-01 1.587146e-01 1.488974e-01 1.320058e-01 1.121603e-01 9.320605e-02
  1.438174e-01 1.113738e-01 8.665470e-02 6.912115e-02 5.686324e-02 4.869924e-02 4.332876e-02 4.031546e-02 3.931692e-02 4.031546e-02 4.332876e-02 4.869924e-02 5.686324e-02 6.912115e-02 8.665470e-02 1.113738e-01 1.438174e-01 1.809259e-01 2.165827e-01 2.428391e-01 2.525674e-01 2.428391e-01 2.165827e-01 1.809259e-01 1.438174e-01
  2.393107e-01 1.786090e-01 1.296914e-01 9.498394e-02 7.236238e-02 5.775396e-02 4.856269e-02 4.298011e-02 4.031546e-02 4.031546e-02 4.298011e-02 4.856269e-02 5.775396e-02 7.236238e-02 9.498394e-02 1.296914e-01 1.786090e-01 2.393107e-01 3.055443e-01 3.652574e-01 4.014805e-01 4.014805e-01 3.652574e-01 3.055443e-01 2.393107e-01
  4.121453e-01 3.002832e-01 2.107059e-01 1.447556e-01 1.008192e-01 7.412803e-02 5.806432e-02 4.856269e-02 4.332876e-02 4.166803e-02 4.332876e-02 4.856269e-02 5.806432e-02 7.412803e-02 1.008192e-01 1.447556e-01 2.107059e-01 3.002832e-01 4.121453e-01 5.289224e-01 6.183388e-01 6.518476e-01 6.183388e-01 5.289224e-01 4.121453e-01
  7.044764e-01 5.181113e-01 3.529787e-01 2.335495e-01 1.533123e-01 1.029532e-01 7.412803e-02 5.775396e-02 4.869924e-02 4.451268e-02 4.451268e-02 4.869924e-02 5.775396e-02 7.412803e-02 1.029532e-01 1.533123e-01 2.335495e-01 3.529787e-01 5.181113e-01 7.044764e-01 8.624337e-01 9.495105e-01 9.495105e-01 8.624337e-01 7.044764e-01
  1.050140e+00 8.437268e-01 5.953946e-01 3.839416e-01 2.418364e-01 1.533123e-01 1.008192e-01 7.236238e-02 5.686324e-02 4.912630e-02 4.659788e-02 4.912630e-02 5.686324e-02 7.236238e-02 1.008192e-01 1.533123e-01 2.418364e-01 3.839416e-01 5.953946e-01 8.437268e-01 1.050140e+00 1.159662e+00 1.188354e+00 1.159662e+00 1.050140e+00
  1.188380e+00 1.135345e+00 9.154486e-01 6.234672e-01 3.839416e-01 2.335495e-01 1.447556e-01 9.498394e-02 6.912115e-02 5.576768e-02 4.998597e-02 4.998597e-02 5.576768e-02 6.912115e-02 9.498394e-02 1.447556e-01 2.335495e-01 3.839416e-01 6.234672e-01 9.154486e-01 1.135345e+00 1.188380e+00 1.145171e+00 1.145171e+00 1.188380e+00
  8.916833e-01 1.123873e+00 1.152694e+00 9.154486e-01 5.953946e-01 3.529787e-01 2.107059e-01 1.296914e-01 8.665470e-02 6.503776e-02 5.461447e-02 5.152259e-02 5.461447e-02 6.503776e-02 8.665470e-02 1.296914e-01 2.107059e-01 3.529787e-01 5.953946e-01 9.154486e-01 1.152694e+00 1.123873e+00 8.916833e-01 7.554027e-01 8.916833e-01
  3.434053e-01 7.452696e-01 1.123873e+00 1.135345e+00 8.437268e-01 5.181113e-01 3.002832e-01 1.786090e-01 1.113738e-01 7.742456e-02 6.072518e-02 5.375067e-02 5.375067e-02 6.072518e-02 7.742456e-02 1.113738e-01 1.786090e-01 3.002832e-01 5.181113e-01 8.437268e-01 1.135345e+00 1.123873e+00 7.452696e-01 3.434053e-01 3.434053e-01
  6.346886e-02 3.434053e-01 8.916833e-01 1.188380e+00 1.050140e+00 7.044764e-01 4.121453e-01 2.393107e-01 1.438174e-01 9.320605e-02 6.847790e-02 5.670051e-02 5.335704e-02 5.670051e-02 6.847790e-02 9.320605e-02 1.438174e-01 2.393107e-01 4.121453e-01 7.044764e-01 1.050140e+00 1.188380e+00 8.916833e-01 3.434053e-01 6.346886e-02
  9.725811e-01 1.059076e+00 1.183754e+00 1.126490e+00 8.636743e-01 5.576433e-01 3.332616e-01 2.009171e-01 1.243234e-01 8.371840e-02 6.292306e-02 5.292336e-02 4.982394e-02 5.292336e-02 6.292306e-02 8.371840e-02 1.243234e-01 2.009171e-01 3.332616e-01 5.576433e-01 8.636743e-01 1.126490e+00 1.183754e+00 1.059076e+00 9.725811e-01
  1.059076e+00 1.059076e+00 1.165967e+00 1.185030e+00 9.942631e-01 6.884622e-01 4.222241e-01 2.531961e-01 1.543041e-01 9.896783e-02 7.050784e-02 5.597374e-02 4.975410e-02 4.975410e-02 5.597374e-02 7.050784e-02 9.896783e-02 1.543041e-01 2.531961e-01 4.222241e-01 6.884622e-01 9.942631e-01 1.185030e+00 1.165967e+00 1.059076e+00
  1.183754e+00 1.156191e+00 1.183754e+00 1.185030e+00 1.038345e+00 7.653833e-01 4.916971e-01 2.993141e-01 1.832494e-01 1.149079e-01 7.856816e-02 5.943396e-02 5.017280e-02 4.718252e-02 5.017280e-02 5.943396e-02 7.856816e-02 1.149079e-01 1.832494e-01 2.993141e-01 4.916971e-01 7.653833e-01 1.038345e+00 1.185030e+00 1.183754e+00
  1.126490e+00 1.164845e+00 1.164845e+00 1.126490e+00 9.942631e-01 7.653833e-01 5.181294e-01 3.270571e-01 2.045574e-01 1.285591e-01 8.595167e-02 6.296231e-02 5.087221e-02 4.546476e-02 4.546476e-02 5.087221e-02 6.296231e-02 8.595167e-02 1.285591e-01 2.045574e-01 3.270571e-01 5.181294e-01 7.653833e-01 9.942631e-01 1.126490e+00
  8.636743e-01 9.716723e-01 1.005145e+00 9.716723e-01 8.636743e-01 6.884622e-01 4.916971e-01 3.270571e-01 2.124238e-01 1.364894e-01 9.128388e-02 6.584314e-02 5.174118e-02 4.435916e-02 4.206035e-02 4.435916e-02 5.174118e-02 6.584314e-02 9.128388e-02 1.364894e-01 2.124238e-01 3.270571e-01 4.916971e-01 6.884622e-01 8.636743e-01
  5.576433e-01 6.711353e-01 7.338458e-01 7.338458e-01 6.711353e-01 5.576433e-01 4.222241e-01 2.993141e-01 2.045574e-01 1.364894e-01 9.324686e-02 6.748352e-02 5.241406e-02 4.379048e-02 3.978713e-02 3.978713e-02 4.379048e-02 5.241406e-02 6.748352e-02 9.324686e-02 1.364894e-01 2.045574e-01 2.993141e-01 4.222241e-01 5.576433e-01
  3.332616e-01 4.120882e-01 4.703310e-01 4.917409e-01 4.703310e-01 4.120882e-01 3.332616e-01 2.531961e-01 1.832494e-01 1.285591e-01 9.128388e-02 6.748352e-02 5.266943e-02 4.356957e-02 3.856223e-02 3.694985e-02 3.856223e-02 4.356957e-02 5.266943e-02 6.748352e-02 9.128388e-02 1.285591e-01 1.832494e-01 2.531961e-01 3.332616e-01
  2.009171e-01 2.480857e-01 2.874869e-01 3.102684e-01 3.102684e-01 2.874869e-01 2.480857e-01 2.009171e-01 1.543041e-01 1.149079e-01 8.595167e-02 6.584314e-02 5.241406e-02 4.356957e-02 3.818193e-02 3.562259e-02 3.562259e-02 3.818193e-02 4.356957e-02 5.241406e-02 6.584314e-02 8.595167e-02 1.149079e-01 1.543041e-01 2.009171e-01
  1.243234e-01 1.521424e-01 1.776180e-01 1.955677e-01 2.020196e-01 1.955677e-01 1.776180e-01 1.521424e-01 1.243234e-01 9.896783e-02 7.856816e-02 6.296231e-02 5.174118e-02 4.379048e-02 3.856223e-02 3.562259e-02 3.467179e-02 3.562259e-02 3.856223e-02 4.379048e-02 5.174118e-02 6.296231e-02 7.856816e-02 9.896783e-02 1.243234e-01
  8.371840e-02 9.838914e-02 1.129550e-01 1.248754e-01 1.315871e-01 1.315871e-01 1.248754e-01 1.129550e-01 9.838914e-02 8.371840e-02 7.050784e-02 5.943396e-02 5.087221e-02 4.435916e-02 3.978713e-02 3.694985e-02 3.562259e-02 3.562259e-02 3.694985e-02 3.978713e-02 4.435916e-02 5.087221e-02 5.943396e-02 7.050784e-02 8.371840e-02
  6.292306e-02 7.069364e-02 7.848887e-02 8.527388e-02 8.998350e-02 9.168623e-02 8.998350e-02 8.527388e-02 7.848887e-02 7.069364e-02 6.292306e-02 5.597374e-02 5.017280e-02 4.546476e-02 4.206035e-02 3.978713e-02 3.856223e-02 3.818193e-02 3.856223e-02 3.978713e-02 4.206035e-02 4.546476e-02 5.017280e-02 5.597374e-02 6.292306e-02
  5.292336e-02 5.651916e-02 6.028834e-02 6.386084e-02 6.663346e-02 6.815393e-02 6.815393e-02 6.663346e-02 6.386084e-02 6.028834e-02 5.651916e-02 5.292336e-02 4.975410e-02 4.718252e-02 4.546476e-02 4.435916e-02 4.379048e-02 4.356957e-02 4.356957e-02 4.379048e-02 4.435916e-02 4.546476e-02 4.718252e-02 4.975410e-02 5.292336e-02
  4.982394e-02 5.044287e-02 5.143582e-02 5.254923e-02 5.365098e-02 5.442540e-02 5.470401e-02 5.442540e-02 5.365098e-02 5.254923e-02 5.143582e-02 5.044287e-02 4.982394e-02 4.975410e-02 5.017280e-02 5.087221e-02 5.174118e-02 5.241406e-02 5.266943e-02 5.241406e-02 5.174118e-02 5.087221e-02 5.017280e-02 4.975410e-02 4.982394e-02
  5.292336e-02 5.044287e-02 4.857862e-02 4.747064e-02 4.682885e-02 4.653601e-02 4.644456e-02 4.644456e-02 4.653601e-02 4.682885e-02 4.747064e-02 4.857862e-02 5.044287e-02 5.292336e-02 5.597374e-02 5.943396e-02 6.296231e-02 6.584314e-02 6.748352e-02 6.748352e-02 6.584314e-02 6.296231e-02 5.943396e-02 5.597374e-02 5.292336e-02
  6.292306e-02 5.651916e-02 5.143582e-02 4.747064e-02 4.468575e-02 4.285377e-02 4.188730e-02 4.159192e-02 4.188730e-02 4.285377e-02 4.468575e-02 4.747064e-02 5.143582e-02 5.651916e-02 6.292306e-02 7.050784e-02 7.856816e-02 8.595167e-02 9.128388e-02 9.324686e-02 9.128388e-02 8.595167e-02 7.856816e-02 7.050784e-02 6.292306e-02