CRYSTAL
PRIMVEC
  0.000000   1.959914   1.959914
  1.959914   0.000000   1.959914
  1.959914   1.959914   0.000000
PRIMCOORD
1 1
78   0.000000   0.000000   0.000000
